192  
17   

1    
  0.0079693899785084   0.0000000000000000   0.0060405979315338
  -0.0746887900   -0.0000000000   -0.0671293500
   0.0026827600   -0.0000000000   -0.0011855000
  -0.0007204200   -0.0000000000   -0.0011917500
   0.0006857600   -0.0000000000   -0.0006239600
   0.0141696900   -0.0000000000   -0.0074046600
   0.0140645300   -0.0000000000   -0.0073357800
   0.0000086600   -0.0000000000   -0.0009344500
   0.0000208700   -0.0000000000   -0.0009272500
  -0.0032942600   -0.0000252300   -0.0073671700
   0.0012799800   -0.0000057100   -0.0009247000
  -0.0032942600    0.0000252300   -0.0073671700
   0.0012799800    0.0000057100   -0.0009247000
   0.0007465800    0.0018023300   -0.0022855300
   0.0007508800   -0.0018007200   -0.0022687600
   0.0007465800   -0.0018023300   -0.0022855300
   0.0007508800    0.0018007200   -0.0022687600
  -0.0068888700   -0.0000000000    0.0141954600
   0.0014070000   -0.0000000000   -0.0001559000
  -0.0005356300   -0.0000000000   -0.0001490800
   0.0004450000   -0.0000000000   -0.0002331800
   0.0003876200   -0.0000000000   -0.0010906700
   0.0037646900   -0.0000000000    0.0030842700
  -0.0000649200   -0.0000000000   -0.0002681100
   0.0001576000   -0.0000000000   -0.0001083000
  -0.0013092700   -0.0016891500    0.0010050600
   0.0008073100   -0.0001057500   -0.0001889300
  -0.0013092700    0.0016891500    0.0010050600
   0.0008073100    0.0001057500   -0.0001889300
  -0.0001783200    0.0002833200   -0.0003232100
   0.0007350400   -0.0011837100    0.0004362100
  -0.0001783200   -0.0002833200   -0.0003232100
   0.0007350400    0.0011837100    0.0004362100
  -0.0069739100   -0.0000000000    0.0148938600
   0.0014097500   -0.0000000000    0.0005302700
  -0.0005331900   -0.0000000000    0.0005263900
   0.0004442900   -0.0000000000    0.0004414900
   0.0037952100   -0.0000000000    0.0037768100
   0.0003892300   -0.0000000000   -0.0004292500
   0.0001461400   -0.0000000000    0.0005712800
  -0.0000569800   -0.0000000000    0.0004069000
  -0.0013139700    0.0017045100    0.0016643300
   0.0008087500    0.0001089700    0.0004886900
  -0.0013139700   -0.0017045100    0.0016643300
   0.0008087500   -0.0001089700    0.0004886900
   0.0007342200    0.0012017000    0.0011142700
  -0.0001764100   -0.0002745500    0.0003467900
   0.0007342200   -0.0012017000    0.0011142700
  -0.0001764100    0.0002745500    0.0003467900
   0.0066430000    0.0156625000    0.0070991800
   0.0009276000   -0.0003054700    0.0015443000
  -0.0003461500   -0.0011388700    0.0016930700
   0.0003061100    0.0000776700    0.0015557900
  -0.0046540500   -0.0044376000   -0.0006443900
   0.0020327700    0.0003893600    0.0017825500
  -0.0004308000    0.0000283300    0.0016114400
   0.0004988700   -0.0002722800    0.0016815000
   0.0066430000   -0.0156625000    0.0070991800
   0.0009276000    0.0003054700    0.0015443000
  -0.0003461500    0.0011388700    0.0016930700
   0.0003061100   -0.0000776700    0.0015557900
  -0.0046540500    0.0044376000   -0.0006443900
   0.0020327700   -0.0003893600    0.0017825500
  -0.0004308000   -0.0000283300    0.0016114400
   0.0004988700    0.0002722800    0.0016815000
  -0.0045927800    0.0044850800   -0.0038045800
   0.0020414600   -0.0003907600   -0.0013566400
  -0.0004334900   -0.0000349400   -0.0015103600
   0.0004984200    0.0002694600   -0.0014493600
   0.0066780500   -0.0158343300    0.0040206800
   0.0009313900    0.0003113200   -0.0016002100
  -0.0003492000    0.0011372500   -0.0014286200
   0.0003085500   -0.0000806600   -0.0015645600
  -0.0045927800   -0.0044850800   -0.0038045800
   0.0020414600    0.0003907600   -0.0013566400
  -0.0004334900    0.0000349400   -0.0015103600
   0.0004984200   -0.0002694600   -0.0014493600
   0.0066780500    0.0158343300    0.0040206800
   0.0009313900   -0.0003113200   -0.0016002100
  -0.0003492000   -0.0011372500   -0.0014286200
   0.0003085500    0.0000806600   -0.0015645600
   0.0002018900   -0.0002393800    0.0012603500
  -0.0001915600    0.0000823100    0.0003452900
   0.0000691700    0.0000496400    0.0003452400
  -0.0000713300   -0.0000277000    0.0001837400
   0.0002023200    0.0002413600    0.0012652400
  -0.0001923600   -0.0000810300    0.0003447300
   0.0000694900   -0.0000491500    0.0003463400
  -0.0000713200    0.0000270000    0.0001835000
   0.0002018900    0.0002393800    0.0012603500
  -0.0001915600   -0.0000823100    0.0003452900
   0.0000691700   -0.0000496400    0.0003452400
  -0.0000713300    0.0000277000    0.0001837400
   0.0002023200   -0.0002413600    0.0012652400
  -0.0001923600    0.0000810300    0.0003447300
   0.0000694900    0.0000491500    0.0003463400
  -0.0000713200   -0.0000270000    0.0001835000
   0.0067972800   -0.0000000000    0.0077344500
  -0.0021362400   -0.0000000000   -0.0001873800
   0.0002848800   -0.0000000000    0.0000706100
  -0.0003128300   -0.0000000000    0.0000045800
   0.0028650400   -0.0000000000    0.0038726600
  -0.0021670000   -0.0000000000    0.0010813600
   0.0002732800   -0.0000000000    0.0000970000
  -0.0002535900   -0.0000000000   -0.0000218400
   0.0014868200   -0.0004728300    0.0006203900
  -0.0008082300   -0.0008329100    0.0000676600
   0.0014868200    0.0004728300    0.0006203900
  -0.0008082300    0.0008329100    0.0000676600
   0.0000967600   -0.0035069800    0.0006217900
  -0.0005881900    0.0001411300    0.0001523700
   0.0000967600    0.0035069800    0.0006217900
  -0.0005881900   -0.0001411300    0.0001523700
   0.0094963300   -0.0023925200    0.0058421000
  -0.0015659800   -0.0000077700    0.0004164500
   0.0011527600   -0.0000152100    0.0007843000
  -0.0007000000    0.0000289200    0.0003279000
   0.0001218800    0.0013034500    0.0014917200
  -0.0038373600   -0.0027000200    0.0004252000
   0.0001240400   -0.0002880000    0.0006236600
  -0.0005956100    0.0005058700    0.0002727900
   0.0094963300    0.0023925200    0.0058421000
  -0.0015659800    0.0000077700    0.0004164500
   0.0011527600    0.0000152100    0.0007843000
  -0.0007000000   -0.0000289200    0.0003279000
   0.0001218800   -0.0013034500    0.0014917200
  -0.0038373600    0.0027000200    0.0004252000
   0.0001240400    0.0002880000    0.0006236600
  -0.0005956100   -0.0005058700    0.0002727900
   0.0095233700    0.0022373800    0.0056326200
  -0.0015756100    0.0000106400    0.0000796800
   0.0011623900    0.0000231900    0.0004535900
  -0.0006881300   -0.0000265900   -0.0000086700
  -0.0038720600    0.0027067500    0.0000907600
   0.0001386500   -0.0013007200    0.0011433400
  -0.0006046800   -0.0005103700   -0.0000645000
   0.0001132200    0.0002823400    0.0002841200
   0.0095233700   -0.0022373800    0.0056326200
  -0.0015756100   -0.0000106400    0.0000796800
   0.0011623900   -0.0000231900    0.0004535900
  -0.0006881300    0.0000265900   -0.0000086700
  -0.0038720600   -0.0027067500    0.0000907600
   0.0001386500    0.0013007200    0.0011433400
  -0.0006046800    0.0005103700   -0.0000645000
   0.0001132200   -0.0002823400    0.0002841200
  -0.0002532100   -0.0015685500   -0.0039512100
  -0.0004280500    0.0001576800   -0.0006180900
   0.0001007800    0.0004288700   -0.0008160300
  -0.0001987100   -0.0000093600   -0.0005773700
   0.0017371800   -0.0004172600   -0.0015922800
  -0.0010328300   -0.0005428400   -0.0011140600
   0.0004855300    0.0001745100   -0.0008737100
  -0.0003923700    0.0002029700   -0.0007696700
  -0.0002532100    0.0015685500   -0.0039512100
  -0.0004280500   -0.0001576800   -0.0006180900
   0.0001007800   -0.0004288700   -0.0008160300
  -0.0001987100    0.0000093600   -0.0005773700
   0.0017371800    0.0004172600   -0.0015922800
  -0.0010328300    0.0005428400   -0.0011140600
   0.0004855300   -0.0001745100   -0.0008737100
  -0.0003923700   -0.0002029700   -0.0007696700
   0.0015899600   -0.0000000000    0.0032961700
  -0.0021697900   -0.0000000000    0.0014212100
   0.0002701300   -0.0000000000    0.0004243900
  -0.0002542400   -0.0000000000    0.0003153900
   0.0069108700   -0.0000000000    0.0080616700
  -0.0021312200   -0.0000000000    0.0001495700
   0.0002903700   -0.0000000000    0.0004058400
  -0.0003068600   -0.0000000000    0.0003379800
   0.0000856400    0.0035146000    0.0009553100
  -0.0005852300   -0.0001010900    0.0004871300
   0.0000856400   -0.0035146000    0.0009553100
  -0.0005852300    0.0001010900    0.0004871300
   0.0014941000    0.0004728800    0.0009567700
  -0.0008120900    0.0008510400    0.0004023700
   0.0014941000   -0.0004728800    0.0009567700
  -0.0008120900   -0.0008510400    0.0004023700
   0.0017393500    0.0004174900   -0.0006915100
  -0.0010332800    0.0005406700   -0.0002552500
   0.0004862000   -0.0001736500   -0.0000595700
  -0.0003938600   -0.0002028200    0.0000745200
  -0.0002526200    0.0015766400   -0.0030694100
  -0.0004307400   -0.0001603800    0.0002379700
   0.0001030100   -0.0004277100   -0.0000186400
  -0.0001988400    0.0000099300    0.0002725800
   0.0017393500   -0.0004174900   -0.0006915100
  -0.0010332800   -0.0005406700   -0.0002552500
   0.0004862000    0.0001736500   -0.0000595700
  -0.0003938600    0.0002028200    0.0000745200
  -0.0002526200   -0.0015766400   -0.0030694100
  -0.0004307400    0.0001603800    0.0002379700
   0.0001030100    0.0004277100   -0.0000186400
  -0.0001988400   -0.0000099300    0.0002725800

17   
  0.0079693899785084   0.0000000000000000   0.0060405979315338
  -0.0069859100    0.0000000000    0.0145690600
   0.0014522700    0.0000000000    0.0001942300
  -0.0005103400    0.0000000000    0.0001932400
   0.0004418400    0.0000000000    0.0001042000
   0.0036621000    0.0000000000    0.0035769700
   0.0004935500    0.0000000000   -0.0008951700
   0.0000990700    0.0000000000    0.0002922900
  -0.0000333900    0.0000000000    0.0000097700
  -0.0013089300    0.0015779400    0.0013321800
   0.0008259900    0.0000601900    0.0001556500
  -0.0013089300   -0.0015779400    0.0013321800
   0.0008259900   -0.0000601900    0.0001556500
   0.0005584100    0.0010457300    0.0009955500
  -0.0000204200   -0.0004679300   -0.0001977200
   0.0005584100   -0.0010457300    0.0009955500
  -0.0000204200    0.0004679300   -0.0001977200
  -0.0467901900    0.0000000000   -0.0351714300
   0.0017409000    0.0000000000   -0.0007651200
  -0.0007402300    0.0000000000   -0.0007688200
   0.0005275400    0.0000000000   -0.0006067100
   0.0110257400    0.0000000000   -0.0016645200
   0.0123451800    0.0000000000   -0.0035104200
   0.0000739300    0.0000000000   -0.0006217100
   0.0001402600    0.0000000000   -0.0007432000
  -0.0043222400   -0.0007355600   -0.0025962800
   0.0010304200   -0.0000324700   -0.0006801500
  -0.0043222400    0.0007355600   -0.0025962800
   0.0010304200    0.0000324700   -0.0006801500
   0.0008793300    0.0013958800   -0.0006291700
   0.0016157200   -0.0021279700   -0.0016219300
   0.0008793300   -0.0013958800   -0.0006291700
   0.0016157200    0.0021279700   -0.0016219300
  -0.0025239600    0.0000000000    0.0036084600
   0.0009276800    0.0000000000    0.0006867400
  -0.0006065100    0.0000000000    0.0006903000
   0.0004190800    0.0000000000    0.0005666300
   0.0002037900    0.0000000000    0.0005465900
   0.0011420500    0.0000000000    0.0017966500
   0.0000387300    0.0000000000    0.0005334200
   0.0001483100    0.0000000000    0.0007084700
  -0.0014626200   -0.0004691100    0.0011759600
   0.0006637100   -0.0000555100    0.0006202500
  -0.0014626200    0.0004691100    0.0011759600
   0.0006637100    0.0000555100    0.0006202500
   0.0000988900    0.0002472600    0.0004869100
   0.0007593700   -0.0009105200    0.0013806300
   0.0000988900   -0.0002472600    0.0004869100
   0.0007593700    0.0009105200    0.0013806300
  -0.0024836300    0.0017285300   -0.0029186600
   0.0012751100   -0.0002883400    0.0015360100
  -0.0003789100   -0.0001128000    0.0013010100
   0.0003702900    0.0001962600    0.0014918700
   0.0051071800   -0.0093654700    0.0071007800
   0.0007722800    0.0001935300    0.0011981000
  -0.0002824300    0.0006097100    0.0014253400
   0.0002979900   -0.0001275300    0.0014148300
  -0.0024836300   -0.0017285300   -0.0029186600
   0.0012751100    0.0002883400    0.0015360100
  -0.0003789100    0.0001128000    0.0013010100
   0.0003702900   -0.0001962600    0.0014918700
   0.0051071800    0.0093654700    0.0071007800
   0.0007722800   -0.0001935300    0.0011981000
  -0.0002824300   -0.0006097100    0.0014253400
   0.0002979900    0.0001275300    0.0014148300
  -0.0006865700    0.0000567700   -0.0005767600
   0.0005180300   -0.0001656800   -0.0015077500
  -0.0002671400   -0.0000765300   -0.0013755200
   0.0002323200    0.0000879700   -0.0015210500
  -0.0002527400   -0.0004957300   -0.0013329500
   0.0004203300    0.0000847900   -0.0013566400
  -0.0001836600    0.0001669800   -0.0014933200
   0.0002186900   -0.0000749900   -0.0014592200
  -0.0006865700   -0.0000567700   -0.0005767600
   0.0005180300    0.0001656800   -0.0015077500
  -0.0002671400    0.0000765300   -0.0013755200
   0.0002323200   -0.0000879700   -0.0015210500
  -0.0002527400    0.0004957300   -0.0013329500
   0.0004203300   -0.0000847900   -0.0013566400
  -0.0001836600   -0.0001669800   -0.0014933200
   0.0002186900    0.0000749900   -0.0014592200
   0.0017050400    0.0013849000    0.0052450100
  -0.0001837800    0.0000717100   -0.0002662700
   0.0000836000    0.0000895000    0.0000395700
  -0.0000717900   -0.0000281700   -0.0000674100
   0.0002850900    0.0000324500   -0.0023306300
  -0.0002404500   -0.0000759400    0.0002155700
   0.0000874100   -0.0000342800   -0.0000846600
  -0.0000946400    0.0000494800    0.0000365200
   0.0017050400   -0.0013849000    0.0052450100
  -0.0001837800   -0.0000717100   -0.0002662700
   0.0000836000   -0.0000895000    0.0000395700
  -0.0000717900    0.0000281700   -0.0000674100
   0.0002850900   -0.0000324500   -0.0023306300
  -0.0002404500    0.0000759400    0.0002155700
   0.0000874100    0.0000342800   -0.0000846600
  -0.0000946400   -0.0000494800    0.0000365200
   0.0012401700    0.0000000000   -0.0008711100
  -0.0009987700    0.0000000000   -0.0007351200
   0.0002256600    0.0000000000   -0.0003279700
  -0.0002111600    0.0000000000   -0.0002597200
   0.0002800400    0.0000000000   -0.0023145300
  -0.0005722300    0.0000000000   -0.0003372700
   0.0001645000    0.0000000000   -0.0002856800
  -0.0001870000    0.0000000000   -0.0002736700
   0.0005052100    0.0002179300   -0.0006071200
  -0.0003946300   -0.0001903400   -0.0003445900
   0.0005052100   -0.0002179300   -0.0006071200
  -0.0003946300    0.0001903400   -0.0003445900
   0.0002343200   -0.0003535200   -0.0005832500
  -0.0003439700    0.0001417800   -0.0003467000
   0.0002343200    0.0003535200   -0.0005832500
  -0.0003439700   -0.0001417800   -0.0003467000
   0.0051598000    0.0011575600    0.0015975000
  -0.0011176400    0.0000334400    0.0002369100
   0.0007037200   -0.0001668700    0.0004082300
  -0.0004756400   -0.0000154200    0.0002208300
  -0.0019472700    0.0013208200   -0.0004828700
  -0.0002435100   -0.0005399600    0.0013666000
  -0.0002830300   -0.0003537800    0.0001583200
   0.0000515000    0.0002485900    0.0004268800
   0.0051598000   -0.0011575600    0.0015975000
  -0.0011176400   -0.0000334400    0.0002369100
   0.0007037200    0.0001668700    0.0004082300
  -0.0004756400    0.0000154200    0.0002208300
  -0.0019472700   -0.0013208200   -0.0004828700
  -0.0002435100    0.0005399600    0.0013666000
  -0.0002830300    0.0003537800    0.0001583200
   0.0000515000   -0.0002485900    0.0004268800
   0.0009355900    0.0004764800   -0.0015892700
  -0.0006253800    0.0000317200   -0.0003053700
   0.0003509300   -0.0002117900   -0.0005334400
  -0.0003015800   -0.0000073300   -0.0002621400
  -0.0002454500    0.0004237000   -0.0007946700
  -0.0001172600   -0.0001490300   -0.0003987200
  -0.0000426300   -0.0002128700   -0.0004188700
  -0.0000028500    0.0001602600   -0.0002742700
   0.0009355900   -0.0004764800   -0.0015892700
  -0.0006253800   -0.0000317200   -0.0003053700
   0.0003509300    0.0002117900   -0.0005334400
  -0.0003015800    0.0000073300   -0.0002621400
  -0.0002454500   -0.0004237000   -0.0007946700
  -0.0001172600    0.0001490300   -0.0003987200
  -0.0000426300    0.0002128700   -0.0004188700
  -0.0000028500   -0.0001602600   -0.0002742700
   0.0030804000   -0.0010163100    0.0025698400
  -0.0012675700    0.0006549800   -0.0001496700
   0.0004809600    0.0004730100   -0.0000038700
  -0.0004145100   -0.0002005800   -0.0003308400
   0.0036050300    0.0004824800    0.0031462500
  -0.0015624800   -0.0006658100   -0.0002676800
   0.0004996400   -0.0001738700   -0.0004385300
  -0.0005346300    0.0003155200   -0.0004503900
   0.0030804000    0.0010163100    0.0025698400
  -0.0012675700   -0.0006549800   -0.0001496700
   0.0004809600   -0.0004730100   -0.0000038700
  -0.0004145100    0.0002005800   -0.0003308400
   0.0036050300   -0.0004824800    0.0031462500
  -0.0015624800    0.0006658100   -0.0002676800
   0.0004996400    0.0001738700   -0.0004385300
  -0.0005346300   -0.0003155200   -0.0004503900
   0.0027155800    0.0000000000    0.0046844600
  -0.0013234100    0.0000000000   -0.0001244500
   0.0002569900    0.0000000000    0.0003034900
  -0.0002464000    0.0000000000    0.0001749500
   0.0004757200    0.0000000000   -0.0014369900
  -0.0009788800    0.0000000000    0.0009348300
   0.0001980200    0.0000000000    0.0001758600
  -0.0002091200    0.0000000000    0.0002695900
   0.0009454000    0.0001936000    0.0009527500
  -0.0005955900   -0.0005147100    0.0000874800
   0.0009454000   -0.0001936000    0.0009527500
  -0.0005955900    0.0005147100    0.0000874800
   0.0001747200   -0.0018916800   -0.0000635800
  -0.0004962500    0.0001842100    0.0004916300
   0.0001747200    0.0018916800   -0.0000635800
  -0.0004962500   -0.0001842100    0.0004916300
   0.0001649200   -0.0004048100   -0.0030662700
  -0.0003360100    0.0000523600    0.0006951100
   0.0002308500    0.0002778200    0.0000861500
  -0.0002029900   -0.0000373700    0.0004891800
   0.0007553200   -0.0001889900    0.0012810500
  -0.0006196900   -0.0001162000   -0.0000413700
   0.0002921400    0.0000034200    0.0005672500
  -0.0003257900    0.0001572000    0.0003826100
   0.0001649200    0.0004048100   -0.0030662700
  -0.0003360100   -0.0000523600    0.0006951100
   0.0002308500   -0.0002778200    0.0000861500
  -0.0002029900    0.0000373700    0.0004891800
   0.0007553200    0.0001889900    0.0012810500
  -0.0006196900    0.0001162000   -0.0000413700
   0.0002921400   -0.0000034200    0.0005672500
  -0.0003257900   -0.0001572000    0.0003826100

17   
 -0.0079693899785084   0.0000000000000000  -0.0060405979315338
   0.0068794800   -0.0000000000   -0.0145227000
  -0.0014449500   -0.0000000000   -0.0002007900
   0.0005071500   -0.0000000000   -0.0001998600
  -0.0004568000   -0.0000000000   -0.0001143800
  -0.0036300600   -0.0000000000   -0.0035561500
  -0.0004735800   -0.0000000000    0.0008790600
  -0.0000966400   -0.0000000000   -0.0003084100
   0.0000412700   -0.0000000000   -0.0000170100
   0.0012924800   -0.0015822000   -0.0013442500
  -0.0008357900   -0.0000744200   -0.0001573500
   0.0012924800    0.0015822000   -0.0013442500
  -0.0008357900    0.0000744200   -0.0001573500
  -0.0005436100   -0.0010419000   -0.0009960600
   0.0000320600    0.0004547000    0.0002020800
  -0.0005436100    0.0010419000   -0.0009960600
   0.0000320600   -0.0004547000    0.0002020800
   0.0465943100   -0.0000000000    0.0337342000
  -0.0017656100   -0.0000000000   -0.0000140100
   0.0007450100   -0.0000000000   -0.0000432000
  -0.0005123100   -0.0000000000   -0.0002078900
  -0.0109273400   -0.0000000000    0.0008208000
  -0.0124725100   -0.0000000000    0.0027386000
  -0.0000684500   -0.0000000000   -0.0001999600
  -0.0001667000   -0.0000000000   -0.0000716600
   0.0043408500    0.0007036400    0.0017565500
  -0.0010419900    0.0000564100   -0.0001212600
   0.0043408500   -0.0007036400    0.0017565500
  -0.0010419900   -0.0000564100   -0.0001212600
  -0.0008686300   -0.0013885900   -0.0001941500
  -0.0016361300    0.0021742700    0.0008092900
  -0.0008686300    0.0013885900   -0.0001941500
  -0.0016361300   -0.0021742700    0.0008092900
   0.0025647500   -0.0000000000   -0.0027668600
  -0.0009505800   -0.0000000000    0.0001000100
   0.0006053400   -0.0000000000    0.0001272200
  -0.0004066500   -0.0000000000    0.0002520400
  -0.0001911400   -0.0000000000    0.0002665600
  -0.0011699500   -0.0000000000   -0.0009817100
  -0.0000295500   -0.0000000000    0.0002901800
  -0.0001669500   -0.0000000000    0.0001067500
   0.0014796200    0.0004974300   -0.0003407300
  -0.0006703500    0.0000754200    0.0001841900
   0.0014796200   -0.0004974300   -0.0003407300
  -0.0006703500   -0.0000754200    0.0001841900
  -0.0000868600   -0.0002448500    0.0003327300
  -0.0007846200    0.0009515300   -0.0005661500
  -0.0000868600    0.0002448500    0.0003327300
  -0.0007846200   -0.0009515300   -0.0005661500
   0.0025304500   -0.0016889000    0.0060657600
  -0.0012735400    0.0002861900    0.0015957800
   0.0003809700    0.0001053700    0.0018226000
  -0.0003738100   -0.0001995200    0.0016319800
  -0.0050674300    0.0092410800   -0.0038873300
  -0.0007679900   -0.0001894900    0.0019447900
   0.0002852200   -0.0006180800    0.0017196300
  -0.0002982000    0.0001216400    0.0017184100
   0.0025304500    0.0016889000    0.0060657600
  -0.0012735400   -0.0002861900    0.0015957800
   0.0003809700   -0.0001053700    0.0018226000
  -0.0003738100    0.0001995200    0.0016319800
  -0.0050674300   -0.0092410800   -0.0038873300
  -0.0007679900    0.0001894900    0.0019447900
   0.0002852200    0.0006180800    0.0017196300
  -0.0002982000   -0.0001216400    0.0017184100
   0.0006897500   -0.0000523500   -0.0025951600
  -0.0005124700    0.0001631700   -0.0016010400
   0.0002657100    0.0000717300   -0.0017660700
  -0.0002350100   -0.0000878200   -0.0016182900
   0.0002472200    0.0004937200   -0.0018044400
  -0.0004168300   -0.0000805900   -0.0018036400
   0.0001869200   -0.0001771900   -0.0016537900
  -0.0002207500    0.0000754400   -0.0016555400
   0.0006897500    0.0000523500   -0.0025951600
  -0.0005124700   -0.0001631700   -0.0016010400
   0.0002657100   -0.0000717300   -0.0017660700
  -0.0002350100    0.0000878200   -0.0016182900
   0.0002472200   -0.0004937200   -0.0018044400
  -0.0004168300    0.0000805900   -0.0018036400
   0.0001869200    0.0001771900   -0.0016537900
  -0.0002207500   -0.0000754400   -0.0016555400
  -0.0017485400   -0.0014307300   -0.0052994500
   0.0001838800   -0.0000706400    0.0002672300
  -0.0000854700   -0.0000943100   -0.0000369900
   0.0000730800    0.0000281500    0.0000781100
  -0.0002977900   -0.0000235300    0.0023726400
   0.0002458000    0.0000759400   -0.0002160100
  -0.0000877200    0.0000331500    0.0000976500
   0.0000953700   -0.0000485700   -0.0000311600
  -0.0017485400    0.0014307300   -0.0052994500
   0.0001838800    0.0000706400    0.0002672300
  -0.0000854700    0.0000943100   -0.0000369900
   0.0000730800   -0.0000281500    0.0000781100
  -0.0002977900    0.0000235300    0.0023726400
   0.0002458000   -0.0000759400   -0.0002160100
  -0.0000877200   -0.0000331500    0.0000976500
   0.0000953700    0.0000485700   -0.0000311600
  -0.0012293800   -0.0000000000    0.0004959200
   0.0009996900   -0.0000000000    0.0003722200
  -0.0002244500   -0.0000000000   -0.0000506300
   0.0001988400   -0.0000000000   -0.0000967000
  -0.0002799500   -0.0000000000    0.0019343200
   0.0005683800   -0.0000000000   -0.0000395800
  -0.0001614600   -0.0000000000   -0.0000667700
   0.0001853600   -0.0000000000   -0.0000910900
  -0.0005108700   -0.0002022900    0.0002358800
   0.0004017900    0.0001689500   -0.0000175800
  -0.0005108700    0.0002022900    0.0002358800
   0.0004017900   -0.0001689500   -0.0000175800
  -0.0002329900    0.0003504300    0.0002134200
   0.0003453100   -0.0000452200   -0.0000182300
  -0.0002329900   -0.0003504300    0.0002134200
   0.0003453100    0.0000452200   -0.0000182300
  -0.0051281000   -0.0012588000   -0.0010795100
   0.0010961400   -0.0000290000    0.0001382200
  -0.0007244700    0.0001729900   -0.0000289400
   0.0004551400    0.0000172700    0.0001393800
   0.0019799600   -0.0013124200    0.0008660600
   0.0002179100    0.0005421800   -0.0009939800
   0.0003350500    0.0003461600    0.0002123300
  -0.0000617300   -0.0002465200   -0.0000499200
  -0.0051281000    0.0012588000   -0.0010795100
   0.0010961400    0.0000290000    0.0001382200
  -0.0007244700   -0.0001729900   -0.0000289400
   0.0004551400   -0.0000172700    0.0001393800
   0.0019799600    0.0013124200    0.0008660600
   0.0002179100   -0.0005421800   -0.0009939800
   0.0003350500   -0.0003461600    0.0002123300
  -0.0000617300    0.0002465200   -0.0000499200
  -0.0008999100   -0.0004772900    0.0012200600
   0.0005299000   -0.0000291800   -0.0000643400
  -0.0003513700    0.0002171100    0.0001711300
   0.0003291200    0.0000106800   -0.0000896200
   0.0002897300   -0.0004271900    0.0004178000
   0.0001329600    0.0001543800    0.0000211300
   0.0000793500    0.0002098100    0.0000599000
  -0.0000589700   -0.0001577800   -0.0000918800
  -0.0008999100    0.0004772900    0.0012200600
   0.0005299000    0.0000291800   -0.0000643400
  -0.0003513700   -0.0002171100    0.0001711300
   0.0003291200   -0.0000106800   -0.0000896200
   0.0002897300    0.0004271900    0.0004178000
   0.0001329600   -0.0001543800    0.0000211300
   0.0000793500   -0.0002098100    0.0000599000
  -0.0000589700    0.0001577800   -0.0000918800
  -0.0032911900    0.0007752400   -0.0036910900
   0.0012706400   -0.0006464200   -0.0007188000
  -0.0004859300   -0.0004652000   -0.0009380500
   0.0004193900    0.0002008000   -0.0006508400
  -0.0034531600   -0.0006231200   -0.0042254400
   0.0015611400    0.0006687400   -0.0006160000
  -0.0005013500    0.0001794200   -0.0004212000
   0.0005333900   -0.0003123500   -0.0004169400
  -0.0032911900   -0.0007752400   -0.0036910900
   0.0012706400    0.0006464200   -0.0007188000
  -0.0004859300    0.0004652000   -0.0009380500
   0.0004193900   -0.0002008000   -0.0006508400
  -0.0034531600    0.0006231200   -0.0042254400
   0.0015611400   -0.0006687400   -0.0006160000
  -0.0005013500   -0.0001794200   -0.0004212000
   0.0005333900    0.0003123500   -0.0004169400
  -0.0027497700   -0.0000000000   -0.0042904700
   0.0013152900   -0.0000000000    0.0004933800
  -0.0002576500   -0.0000000000    0.0000760400
   0.0002368700   -0.0000000000    0.0001827000
  -0.0001538000   -0.0000000000    0.0021783400
   0.0009807700   -0.0000000000   -0.0005513700
  -0.0001921400   -0.0000000000    0.0001893900
   0.0002104000   -0.0000000000    0.0000997900
  -0.0009509400   -0.0001415800   -0.0005728900
   0.0006036200    0.0005474200    0.0002821200
  -0.0009509400    0.0001415800   -0.0005728900
   0.0006036200   -0.0005474200    0.0002821200
  -0.0001725500    0.0019113700    0.0004443500
   0.0004950000   -0.0001409300   -0.0001217900
  -0.0001725500   -0.0019113700    0.0004443500
   0.0004950000    0.0001409300   -0.0001217900
  -0.0001614000    0.0004040600    0.0041401600
   0.0003394100   -0.0000530500    0.0001693600
  -0.0002309700   -0.0002745100    0.0008664100
   0.0002033500    0.0000383700    0.0004554100
  -0.0007522200    0.0001834300   -0.0002889300
   0.0006153600    0.0001121700    0.0009486000
  -0.0002945700   -0.0000015700    0.0002508700
   0.0003259200   -0.0001557000    0.0004596500
  -0.0001614000   -0.0004040600    0.0041401600
   0.0003394100    0.0000530500    0.0001693600
  -0.0002309700    0.0002745100    0.0008664100
   0.0002033500   -0.0000383700    0.0004554100
  -0.0007522200   -0.0001834300   -0.0002889300
   0.0006153600   -0.0001121700    0.0009486000
  -0.0002945700    0.0000015700    0.0002508700
   0.0003259200    0.0001557000    0.0004596500

49   
  0.0079693899785084   0.0000000000000000   0.0060405979315338
   0.0039913800    0.0131204500    0.0091388900
   0.0014150800   -0.0005590200   -0.0006404500
  -0.0003494400   -0.0004321300    0.0001373000
   0.0003526800    0.0001285500   -0.0000761700
   0.0015664300    0.0006151800    0.0008107100
  -0.0019137700   -0.0071879200   -0.0058039200
   0.0004483800   -0.0002286000    0.0001717600
  -0.0004234800    0.0002715400    0.0000313200
  -0.0003494400    0.0004321300    0.0001373000
   0.0003526800   -0.0001285500   -0.0000761700
   0.0039913800   -0.0131204500    0.0091388900
   0.0014150800    0.0005590200   -0.0006404500
   0.0004483800    0.0002286000    0.0001717600
  -0.0004234800   -0.0002715400    0.0000313200
   0.0015664300   -0.0006151800    0.0008107100
  -0.0019137700    0.0071879200   -0.0058039200
  -0.0025135100    0.0017043700   -0.0049727600
   0.0011450400   -0.0004021800   -0.0003402500
  -0.0003714200   -0.0001051900   -0.0007327200
   0.0003662100    0.0001950100   -0.0005276100
   0.0008918200    0.0003079200   -0.0010031300
   0.0050553500   -0.0092488000    0.0050161700
   0.0003041600   -0.0001332700   -0.0006226600
  -0.0002924800    0.0003774900   -0.0006082800
  -0.0003714200    0.0001051900   -0.0007327200
   0.0003662100   -0.0001950100   -0.0005276100
  -0.0025135100   -0.0017043700   -0.0049727600
   0.0011450400    0.0004021800   -0.0003402500
   0.0003041600    0.0001332700   -0.0006226600
  -0.0002924800   -0.0003774900   -0.0006082800
   0.0008918200   -0.0003079200   -0.0010031300
   0.0050553500    0.0092488000    0.0050161700
  -0.0007676200   -0.0000240300    0.0013878600
   0.0005163500   -0.0001717300    0.0005431400
  -0.0002642600   -0.0000582300    0.0006588900
   0.0002517400    0.0000995200    0.0005352200
   0.0004142300    0.0000694500    0.0006737600
  -0.0001670200   -0.0005644100    0.0008099800
   0.0002029400   -0.0000608100    0.0005528100
  -0.0001886800    0.0001884500    0.0005543900
  -0.0002642600    0.0000582300    0.0006588900
   0.0002517400   -0.0000995200    0.0005352200