250  
1    

1    
  0.0000000000000000   0.0070710678118655   0.0070710678118655
  -0.0017333000   -0.0967495300   -0.0967495300
   0.0014238900    0.0025788700    0.0025788700
   0.0002599500    0.0001178700    0.0001178700
  -0.0002549800    0.0001162800    0.0001162800
  -0.0014149100    0.0025423000    0.0025423000
   0.0005573800   -0.0022360600    0.0005861100
  -0.0001465700    0.0001490600    0.0000788400
  -0.0000006700    0.0000266900    0.0000260000
   0.0001438200    0.0000794600    0.0001496600
  -0.0005617800    0.0005747500   -0.0022355800
  -0.0000053600   -0.0007749000   -0.0001342500
  -0.0000487200    0.0001064800    0.0000756300
   0.0000484500    0.0000746400    0.0001082100
   0.0000053900   -0.0001353000   -0.0007742200
  -0.0000006900    0.0002917200    0.0002942700
   0.0002503800   -0.0010335500    0.0001215800
  -0.0000003600    0.0002939600    0.0002963400
  -0.0002518400    0.0001222500   -0.0010325900
   0.0000334900    0.0000598600    0.0001238700
  -0.0000335100    0.0001202500    0.0000604000
   0.0019778700   -0.0036539500    0.0020043300
  -0.0019849800    0.0019993200   -0.0036564100
   0.0000861700    0.0000187000    0.0002066000
  -0.0000012900    0.0000262800    0.0000265400
  -0.0000869200    0.0002060400    0.0000189600
   0.0005573800    0.0005861100   -0.0022360600
  -0.0001465700    0.0000788400    0.0001490600
  -0.0000006700    0.0000260000    0.0000266900
   0.0001438200    0.0001496600    0.0000794600
  -0.0005617800   -0.0022355800    0.0005747500
   0.0001989300   -0.0000775300   -0.0000775300
   0.0000084500    0.0000304300    0.0000304300
  -0.0000088600    0.0000300500    0.0000300500
  -0.0001994200   -0.0000768500   -0.0000768500
   0.0000018500    0.0001382200    0.0001382200
   0.0001146200   -0.0000263500   -0.0000877400
  -0.0000000400    0.0000208900    0.0000220900
  -0.0001151000   -0.0000888100   -0.0000250600
  -0.0000080800    0.0000497000    0.0000491700
   0.0000071100    0.0000481300    0.0000483000
   0.0002271500    0.0000691400   -0.0001197400
  -0.0002269800   -0.0001206200    0.0000679800
   0.0000038000    0.0000100700    0.0000619700
  -0.0000010000    0.0000311800    0.0000324700
  -0.0000043600    0.0000613000    0.0000122400
  -0.0000065600    0.0000181100    0.0000222900
  -0.0000011000    0.0000359600    0.0001397400
  -0.0000122100    0.0000176900    0.0000452600
   0.0000128900    0.0000452200    0.0000203700
   0.0000024000    0.0001390400    0.0000339800
  -0.0000053600   -0.0001342500   -0.0007749000
  -0.0000487200    0.0000756300    0.0001064800
   0.0000484500    0.0001082100    0.0000746400
   0.0000053900   -0.0007742200   -0.0001353000
  -0.0000006900    0.0002942700    0.0002917200
   0.0001146200   -0.0000877400   -0.0000263500
  -0.0000000400    0.0000220900    0.0000208900
  -0.0001151000   -0.0000250600   -0.0000888100
  -0.0000080800    0.0000491700    0.0000497000
   0.0000071100    0.0000483000    0.0000481300
   0.0001351800   -0.0000397200   -0.0000397200
  -0.0001325900   -0.0000407500   -0.0000407500
  -0.0000054700    0.0000283300    0.0000283300
  -0.0000016000    0.0000352500    0.0000352500
   0.0000064300    0.0000285500    0.0000285500
  -0.0000010700   -0.0001292200   -0.0001298000
   0.0000072800    0.0000225600    0.0000497400
  -0.0000003000    0.0000236200    0.0000354800
   0.0000012800    0.0000362800    0.0000264100
  -0.0000060600    0.0000492100    0.0000228000
   0.0002852100   -0.0000628700    0.0000080600
   0.0000000300    0.0000303200    0.0000432000
   0.0000008000    0.0000332500    0.0000336000
  -0.0000005200    0.0000425000    0.0000312000
  -0.0002837600    0.0000085100   -0.0000625400
   0.0002503800    0.0001215800   -0.0010335500
  -0.0000003600    0.0002963400    0.0002939600
  -0.0002518400   -0.0010325900    0.0001222500
   0.0000334900    0.0001238700    0.0000598600
  -0.0000335100    0.0000604000    0.0001202500
   0.0002271500   -0.0001197400    0.0000691400
  -0.0002269800    0.0000679800   -0.0001206200
   0.0000038000    0.0000619700    0.0000100700
  -0.0000010000    0.0000324700    0.0000311800
  -0.0000043600    0.0000122400    0.0000613000
  -0.0000010700   -0.0001298000   -0.0001292200
   0.0000072800    0.0000497400    0.0000225600
  -0.0000003000    0.0000354800    0.0000236200
   0.0000012800    0.0000264100    0.0000362800
  -0.0000060600    0.0000228000    0.0000492100
   0.0001658000   -0.0000410100   -0.0000410100
   0.0000046200    0.0000270400    0.0000270400
   0.0000021200    0.0000364900    0.0000364900
  -0.0000043000    0.0000286700    0.0000286700
  -0.0001619200   -0.0000395700   -0.0000395700
   0.0001006500   -0.0000737900   -0.0000421300
  -0.0000103300    0.0000451100    0.0000555300
   0.0000132900    0.0000547600    0.0000445900
  -0.0000998400   -0.0000418700   -0.0000736200
   0.0000007200    0.0000225300    0.0000200000
   0.0019778700    0.0020043300   -0.0036539500
  -0.0019849800   -0.0036564100    0.0019993200
   0.0000861700    0.0002066000    0.0000187000
  -0.0000012900    0.0000265400    0.0000262800
  -0.0000869200    0.0000189600    0.0002060400
  -0.0000065600    0.0000222900    0.0000181100
  -0.0000011000    0.0001397400    0.0000359600
  -0.0000122100    0.0000452600    0.0000176900
   0.0000128900    0.0000203700    0.0000452200
   0.0000024000    0.0000339800    0.0001390400
   0.0002852100    0.0000080600   -0.0000628700
   0.0000000300    0.0000432000    0.0000303200
   0.0000008000    0.0000336000    0.0000332500
  -0.0000005200    0.0000312000    0.0000425000
  -0.0002837600   -0.0000625400    0.0000085100
   0.0001006500   -0.0000421300   -0.0000737900
  -0.0000103300    0.0000555300    0.0000451100
   0.0000132900    0.0000445900    0.0000547600
  -0.0000998400   -0.0000736200   -0.0000418700
   0.0000007200    0.0000200000    0.0000225300
   0.0000808500   -0.0000777900   -0.0000777900
  -0.0000011900    0.0001410700    0.0001410700
  -0.0000818400   -0.0000783900   -0.0000783900
  -0.0000089300    0.0000310600    0.0000310600
   0.0000086400    0.0000280700    0.0000280700
   0.0350683100    0.0412923600    0.0412923600
  -0.0007469100    0.0003047600    0.0003047600
  -0.0000018400    0.0000231300    0.0000231300
   0.0007415000    0.0002945000    0.0002945000
  -0.0335444200    0.0401770000    0.0401770000
  -0.0002089200    0.0009550700   -0.0002317100
   0.0000503800   -0.0000847800   -0.0000963600
  -0.0000514800   -0.0000960100   -0.0000855600
   0.0002091300   -0.0002335300    0.0009545600
  -0.0000031000   -0.0004890000   -0.0005005000
  -0.0000330200    0.0007526100    0.0000558600
   0.0000003900   -0.0001364500   -0.0001364000
   0.0000344900    0.0000564100    0.0007531600
  -0.0000624700   -0.0000601700   -0.0001710100
   0.0000640500   -0.0001665600   -0.0000624100
   0.0005310900    0.0017024200    0.0005082100
  -0.0005350700    0.0005102800    0.0016981700
  -0.0000550700   -0.0001034200   -0.0001788200
   0.0000007200   -0.0000164800   -0.0000167800
   0.0000564000   -0.0001754800   -0.0001034200
   0.0001266000    0.0063480400    0.0065169000
  -0.0000501400   -0.0002546400   -0.0004455400
   0.0000091800   -0.0000399700   -0.0000056000
  -0.0000065600   -0.0000049000   -0.0000401100
   0.0000515400   -0.0004427100   -0.0002543200
  -0.0002089200   -0.0002317100    0.0009550700
   0.0000503800   -0.0000963600   -0.0000847800
  -0.0000514800   -0.0000855600   -0.0000960100
   0.0002091300    0.0009545600   -0.0002335300
  -0.0000031000   -0.0005005000   -0.0004890000
  -0.0001342800    0.0001011500    0.0001011500
  -0.0000000500    0.0000327000    0.0000327000
   0.0001351600    0.0001014300    0.0001014300
  -0.0000143400   -0.0000900100   -0.0000900100
   0.0000173200   -0.0000917800   -0.0000917800
  -0.0001860800    0.0000500500    0.0000394900
   0.0001857600    0.0000378400    0.0000509100
  -0.0000025100   -0.0000287900   -0.0000520700
  -0.0000021300   -0.0000438800   -0.0000451700
   0.0000021500   -0.0000519400   -0.0000303200
   0.0000001200   -0.0000238300   -0.0000246100
  -0.0000224200   -0.0000144100   -0.0000821400
   0.0000075500   -0.0000193100   -0.0000529300
  -0.0000081700   -0.0000527700   -0.0000182500
   0.0000208800   -0.0000842200   -0.0000137200
  -0.0004677700    0.0001620200   -0.0000278800
  -0.0000077800    0.0000014800   -0.0000681600
  -0.0000004500   -0.0000284400   -0.0000263500
   0.0000061200   -0.0000698200    0.0000021900
   0.0004656100   -0.0000282700    0.0001629200
  -0.0000330200    0.0000558600    0.0007526100
   0.0000003900   -0.0001364000   -0.0001364500
   0.0000344900    0.0007531600    0.0000564100
  -0.0000624700   -0.0001710100   -0.0000601700
   0.0000640500   -0.0000624100   -0.0001665600
  -0.0001860800    0.0000394900    0.0000500500
   0.0001857600    0.0000509100    0.0000378400
  -0.0000025100   -0.0000520700   -0.0000287900
  -0.0000021300   -0.0000451700   -0.0000438800
   0.0000021500   -0.0000303200   -0.0000519400
  -0.0000003100    0.0000891600    0.0000891600
  -0.0000173100   -0.0000162100   -0.0000162100
   0.0000043500   -0.0000322200   -0.0000322200
  -0.0000074100   -0.0000307200   -0.0000307200
   0.0000152400   -0.0000167500   -0.0000167500
  -0.0001834900    0.0000216600    0.0000575500
  -0.0000071500   -0.0000046200   -0.0000373400
  -0.0000014300   -0.0000386200   -0.0000367100
   0.0000054500   -0.0000388000   -0.0000051900
   0.0001812400    0.0000577100    0.0000235900
  -0.0001182200    0.0000854600    0.0000145100
  -0.0000125400   -0.0000152400   -0.0000346900
   0.0000132800   -0.0000360500   -0.0000140100
   0.0001194400    0.0000129400    0.0000866000
  -0.0000002100   -0.0000563000   -0.0000579000
   0.0005310900    0.0005082100    0.0017024200
  -0.0005350700    0.0016981700    0.0005102800
  -0.0000550700   -0.0001788200   -0.0001034200
   0.0000007200   -0.0000167800   -0.0000164800
   0.0000564000   -0.0001034200   -0.0001754800
   0.0000001200   -0.0000246100   -0.0000238300
  -0.0000224200   -0.0000821400   -0.0000144100
   0.0000075500   -0.0000529300   -0.0000193100
  -0.0000081700   -0.0000182500   -0.0000527700
   0.0000208800   -0.0000137200   -0.0000842200
  -0.0001834900    0.0000575500    0.0000216600
  -0.0000071500   -0.0000373400   -0.0000046200
  -0.0000014300   -0.0000367100   -0.0000386200
   0.0000054500   -0.0000051900   -0.0000388000
   0.0001812400    0.0000235900    0.0000577100
  -0.0000765100    0.0000596500    0.0000596500
  -0.0000136100   -0.0000465900   -0.0000465900
   0.0000141500   -0.0000466600   -0.0000466600
   0.0000754200    0.0000592500    0.0000592500
   0.0000004700   -0.0000255400   -0.0000255400
  -0.0001256300    0.0001129300    0.0000066800
   0.0000013000   -0.0000622000   -0.0000615300
   0.0001271300    0.0000049100    0.0001143000
  -0.0000043800   -0.0000269100   -0.0000206100
   0.0000053900   -0.0000213900   -0.0000281400
   0.0001266000    0.0065169000    0.0063480400
  -0.0000501400   -0.0004455400   -0.0002546400
   0.0000091800   -0.0000056000   -0.0000399700
  -0.0000065600   -0.0000401100   -0.0000049000
   0.0000515400   -0.0002543200   -0.0004427100
  -0.0004677700   -0.0000278800    0.0001620200
  -0.0000077800   -0.0000681600    0.0000014800
  -0.0000004500   -0.0000263500   -0.0000284400
   0.0000061200    0.0000021900   -0.0000698200
   0.0004656100    0.0001629200   -0.0000282700
  -0.0001182200    0.0000145100    0.0000854600
  -0.0000125400   -0.0000346900   -0.0000152400
   0.0000132800   -0.0000140100   -0.0000360500
   0.0001194400    0.0000866000    0.0000129400
  -0.0000002100   -0.0000579000   -0.0000563000
  -0.0001256300    0.0000066800    0.0001129300
   0.0000013000   -0.0000615300   -0.0000622000
   0.0001271300    0.0001143000    0.0000049100
  -0.0000043800   -0.0000206100   -0.0000269100
   0.0000053900   -0.0000281400   -0.0000213900
  -0.0004174200    0.0000227400    0.0000227400
   0.0004164500    0.0000229500    0.0000229500
  -0.0000047200   -0.0000518500   -0.0000518500
  -0.0000008700   -0.0000157600   -0.0000157600
   0.0000054000   -0.0000527900   -0.0000527900