
 **** DERIVATIVE DATABASE ****    
+DDB, Version number    100401

 si phonons on 4 4 2 mesh

    usepaw         1
     natom         8
      nkpt       256
    nsppol         1
      nsym        16
    ntypat         4
    occopt         7
     nband        50
     acell  0.73321373955963D+01  0.73321373955963D+01  0.18046884569058D+02
       amu  0.20059000000000D+03  0.13732700000000D+03  0.63546000000000D+02
            0.15999400000000D+02
   dilatmx  0.10000000000000D+01
      ecut  0.14699730159185D+02
 pawecutdg  0.29399460318370D+02
    ecutsm  0.00000000000000D+00
     intxc         0
      iscf         7
       ixc     -1012
       kpt  0.00000000000000D+00  0.00000000000000D+00  0.00000000000000D+00
            0.12500000000000D+00  0.00000000000000D+00  0.00000000000000D+00
            0.25000000000000D+00  0.00000000000000D+00  0.00000000000000D+00
            0.37500000000000D+00  0.00000000000000D+00  0.00000000000000D+00
            0.50000000000000D+00  0.00000000000000D+00  0.00000000000000D+00
           -0.37500000000000D+00  0.00000000000000D+00  0.00000000000000D+00
           -0.25000000000000D+00  0.00000000000000D+00  0.00000000000000D+00
           -0.12500000000000D+00  0.00000000000000D+00  0.00000000000000D+00
            0.00000000000000D+00  0.12500000000000D+00  0.00000000000000D+00
            0.12500000000000D+00  0.12500000000000D+00  0.00000000000000D+00
            0.25000000000000D+00  0.12500000000000D+00  0.00000000000000D+00
            0.37500000000000D+00  0.12500000000000D+00  0.00000000000000D+00
            0.50000000000000D+00  0.12500000000000D+00  0.00000000000000D+00
           -0.37500000000000D+00  0.12500000000000D+00  0.00000000000000D+00
           -0.25000000000000D+00  0.12500000000000D+00  0.00000000000000D+00
           -0.12500000000000D+00  0.12500000000000D+00  0.00000000000000D+00
            0.00000000000000D+00  0.25000000000000D+00  0.00000000000000D+00
            0.12500000000000D+00  0.25000000000000D+00  0.00000000000000D+00
            0.25000000000000D+00  0.25000000000000D+00  0.00000000000000D+00
            0.37500000000000D+00  0.25000000000000D+00  0.00000000000000D+00
            0.50000000000000D+00  0.25000000000000D+00  0.00000000000000D+00
           -0.37500000000000D+00  0.25000000000000D+00  0.00000000000000D+00
           -0.25000000000000D+00  0.25000000000000D+00  0.00000000000000D+00
           -0.12500000000000D+00  0.25000000000000D+00  0.00000000000000D+00
            0.00000000000000D+00  0.37500000000000D+00  0.00000000000000D+00
            0.12500000000000D+00  0.37500000000000D+00  0.00000000000000D+00
            0.25000000000000D+00  0.37500000000000D+00  0.00000000000000D+00
            0.37500000000000D+00  0.37500000000000D+00  0.00000000000000D+00
            0.50000000000000D+00  0.37500000000000D+00  0.00000000000000D+00
           -0.37500000000000D+00  0.37500000000000D+00  0.00000000000000D+00
           -0.25000000000000D+00  0.37500000000000D+00  0.00000000000000D+00
           -0.12500000000000D+00  0.37500000000000D+00  0.00000000000000D+00
            0.00000000000000D+00  0.50000000000000D+00  0.00000000000000D+00
            0.12500000000000D+00  0.50000000000000D+00  0.00000000000000D+00
            0.25000000000000D+00  0.50000000000000D+00  0.00000000000000D+00
            0.37500000000000D+00  0.50000000000000D+00  0.00000000000000D+00
            0.50000000000000D+00  0.50000000000000D+00  0.00000000000000D+00
           -0.37500000000000D+00  0.50000000000000D+00  0.00000000000000D+00
           -0.25000000000000D+00  0.50000000000000D+00  0.00000000000000D+00
           -0.12500000000000D+00  0.50000000000000D+00  0.00000000000000D+00
            0.00000000000000D+00 -0.37500000000000D+00  0.00000000000000D+00
            0.12500000000000D+00 -0.37500000000000D+00  0.00000000000000D+00
            0.25000000000000D+00 -0.37500000000000D+00  0.00000000000000D+00
            0.37500000000000D+00 -0.37500000000000D+00  0.00000000000000D+00
            0.50000000000000D+00 -0.37500000000000D+00  0.00000000000000D+00
           -0.37500000000000D+00 -0.37500000000000D+00  0.00000000000000D+00
           -0.25000000000000D+00 -0.37500000000000D+00  0.00000000000000D+00
           -0.12500000000000D+00 -0.37500000000000D+00  0.00000000000000D+00
            0.00000000000000D+00 -0.25000000000000D+00  0.00000000000000D+00
            0.12500000000000D+00 -0.25000000000000D+00  0.00000000000000D+00
            0.25000000000000D+00 -0.25000000000000D+00  0.00000000000000D+00
            0.37500000000000D+00 -0.25000000000000D+00  0.00000000000000D+00
            0.50000000000000D+00 -0.25000000000000D+00  0.00000000000000D+00
           -0.37500000000000D+00 -0.25000000000000D+00  0.00000000000000D+00
           -0.25000000000000D+00 -0.25000000000000D+00  0.00000000000000D+00
           -0.12500000000000D+00 -0.25000000000000D+00  0.00000000000000D+00
            0.00000000000000D+00 -0.12500000000000D+00  0.00000000000000D+00
            0.12500000000000D+00 -0.12500000000000D+00  0.00000000000000D+00
            0.25000000000000D+00 -0.12500000000000D+00  0.00000000000000D+00
            0.37500000000000D+00 -0.12500000000000D+00  0.00000000000000D+00
            0.50000000000000D+00 -0.12500000000000D+00  0.00000000000000D+00
           -0.37500000000000D+00 -0.12500000000000D+00  0.00000000000000D+00
           -0.25000000000000D+00 -0.12500000000000D+00  0.00000000000000D+00
           -0.12500000000000D+00 -0.12500000000000D+00  0.00000000000000D+00
            0.00000000000000D+00  0.00000000000000D+00  0.25000000000000D+00
            0.12500000000000D+00  0.00000000000000D+00  0.25000000000000D+00
            0.25000000000000D+00  0.00000000000000D+00  0.25000000000000D+00
            0.37500000000000D+00  0.00000000000000D+00  0.25000000000000D+00
            0.50000000000000D+00  0.00000000000000D+00  0.25000000000000D+00
           -0.37500000000000D+00  0.00000000000000D+00  0.25000000000000D+00
           -0.25000000000000D+00  0.00000000000000D+00  0.25000000000000D+00
           -0.12500000000000D+00  0.00000000000000D+00  0.25000000000000D+00
            0.00000000000000D+00  0.12500000000000D+00  0.25000000000000D+00
            0.12500000000000D+00  0.12500000000000D+00  0.25000000000000D+00
            0.25000000000000D+00  0.12500000000000D+00  0.25000000000000D+00
            0.37500000000000D+00  0.12500000000000D+00  0.25000000000000D+00
            0.50000000000000D+00  0.12500000000000D+00  0.25000000000000D+00
           -0.37500000000000D+00  0.12500000000000D+00  0.25000000000000D+00
           -0.25000000000000D+00  0.12500000000000D+00  0.25000000000000D+00
           -0.12500000000000D+00  0.12500000000000D+00  0.25000000000000D+00
            0.00000000000000D+00  0.25000000000000D+00  0.25000000000000D+00
            0.12500000000000D+00  0.25000000000000D+00  0.25000000000000D+00
            0.25000000000000D+00  0.25000000000000D+00  0.25000000000000D+00
            0.37500000000000D+00  0.25000000000000D+00  0.25000000000000D+00
            0.50000000000000D+00  0.25000000000000D+00  0.25000000000000D+00
           -0.37500000000000D+00  0.25000000000000D+00  0.25000000000000D+00
           -0.25000000000000D+00  0.25000000000000D+00  0.25000000000000D+00
           -0.12500000000000D+00  0.25000000000000D+00  0.25000000000000D+00
            0.00000000000000D+00  0.37500000000000D+00  0.25000000000000D+00
            0.12500000000000D+00  0.37500000000000D+00  0.25000000000000D+00
            0.25000000000000D+00  0.37500000000000D+00  0.25000000000000D+00
            0.37500000000000D+00  0.37500000000000D+00  0.25000000000000D+00
            0.50000000000000D+00  0.37500000000000D+00  0.25000000000000D+00
           -0.37500000000000D+00  0.37500000000000D+00  0.25000000000000D+00
           -0.25000000000000D+00  0.37500000000000D+00  0.25000000000000D+00
           -0.12500000000000D+00  0.37500000000000D+00  0.25000000000000D+00
            0.00000000000000D+00  0.50000000000000D+00  0.25000000000000D+00
            0.12500000000000D+00  0.50000000000000D+00  0.25000000000000D+00
            0.25000000000000D+00  0.50000000000000D+00  0.25000000000000D+00
            0.37500000000000D+00  0.50000000000000D+00  0.25000000000000D+00
            0.50000000000000D+00  0.50000000000000D+00  0.25000000000000D+00
           -0.37500000000000D+00  0.50000000000000D+00  0.25000000000000D+00
           -0.25000000000000D+00  0.50000000000000D+00  0.25000000000000D+00
           -0.12500000000000D+00  0.50000000000000D+00  0.25000000000000D+00
            0.00000000000000D+00 -0.37500000000000D+00  0.25000000000000D+00
            0.12500000000000D+00 -0.37500000000000D+00  0.25000000000000D+00
            0.25000000000000D+00 -0.37500000000000D+00  0.25000000000000D+00
            0.37500000000000D+00 -0.37500000000000D+00  0.25000000000000D+00
            0.50000000000000D+00 -0.37500000000000D+00  0.25000000000000D+00
           -0.37500000000000D+00 -0.37500000000000D+00  0.25000000000000D+00
           -0.25000000000000D+00 -0.37500000000000D+00  0.25000000000000D+00
           -0.12500000000000D+00 -0.37500000000000D+00  0.25000000000000D+00
            0.00000000000000D+00 -0.25000000000000D+00  0.25000000000000D+00
            0.12500000000000D+00 -0.25000000000000D+00  0.25000000000000D+00
            0.25000000000000D+00 -0.25000000000000D+00  0.25000000000000D+00
            0.37500000000000D+00 -0.25000000000000D+00  0.25000000000000D+00
            0.50000000000000D+00 -0.25000000000000D+00  0.25000000000000D+00
           -0.37500000000000D+00 -0.25000000000000D+00  0.25000000000000D+00
           -0.25000000000000D+00 -0.25000000000000D+00  0.25000000000000D+00
           -0.12500000000000D+00 -0.25000000000000D+00  0.25000000000000D+00
            0.00000000000000D+00 -0.12500000000000D+00  0.25000000000000D+00
            0.12500000000000D+00 -0.12500000000000D+00  0.25000000000000D+00
            0.25000000000000D+00 -0.12500000000000D+00  0.25000000000000D+00
            0.37500000000000D+00 -0.12500000000000D+00  0.25000000000000D+00
            0.50000000000000D+00 -0.12500000000000D+00  0.25000000000000D+00
           -0.37500000000000D+00 -0.12500000000000D+00  0.25000000000000D+00
           -0.25000000000000D+00 -0.12500000000000D+00  0.25000000000000D+00
           -0.12500000000000D+00 -0.12500000000000D+00  0.25000000000000D+00
            0.00000000000000D+00  0.00000000000000D+00  0.50000000000000D+00
            0.12500000000000D+00  0.00000000000000D+00  0.50000000000000D+00
            0.25000000000000D+00  0.00000000000000D+00  0.50000000000000D+00
            0.37500000000000D+00  0.00000000000000D+00  0.50000000000000D+00
            0.50000000000000D+00  0.00000000000000D+00  0.50000000000000D+00
           -0.37500000000000D+00  0.00000000000000D+00  0.50000000000000D+00
           -0.25000000000000D+00  0.00000000000000D+00  0.50000000000000D+00
           -0.12500000000000D+00  0.00000000000000D+00  0.50000000000000D+00
            0.00000000000000D+00  0.12500000000000D+00  0.50000000000000D+00
            0.12500000000000D+00  0.12500000000000D+00  0.50000000000000D+00
            0.25000000000000D+00  0.12500000000000D+00  0.50000000000000D+00
            0.37500000000000D+00  0.12500000000000D+00  0.50000000000000D+00
            0.50000000000000D+00  0.12500000000000D+00  0.50000000000000D+00
           -0.37500000000000D+00  0.12500000000000D+00  0.50000000000000D+00
           -0.25000000000000D+00  0.12500000000000D+00  0.50000000000000D+00
           -0.12500000000000D+00  0.12500000000000D+00  0.50000000000000D+00
            0.00000000000000D+00  0.25000000000000D+00  0.50000000000000D+00
            0.12500000000000D+00  0.25000000000000D+00  0.50000000000000D+00
            0.25000000000000D+00  0.25000000000000D+00  0.50000000000000D+00
            0.37500000000000D+00  0.25000000000000D+00  0.50000000000000D+00
            0.50000000000000D+00  0.25000000000000D+00  0.50000000000000D+00
           -0.37500000000000D+00  0.25000000000000D+00  0.50000000000000D+00
           -0.25000000000000D+00  0.25000000000000D+00  0.50000000000000D+00
           -0.12500000000000D+00  0.25000000000000D+00  0.50000000000000D+00
            0.00000000000000D+00  0.37500000000000D+00  0.50000000000000D+00
            0.12500000000000D+00  0.37500000000000D+00  0.50000000000000D+00
            0.25000000000000D+00  0.37500000000000D+00  0.50000000000000D+00
            0.37500000000000D+00  0.37500000000000D+00  0.50000000000000D+00
            0.50000000000000D+00  0.37500000000000D+00  0.50000000000000D+00
           -0.37500000000000D+00  0.37500000000000D+00  0.50000000000000D+00
           -0.25000000000000D+00  0.37500000000000D+00  0.50000000000000D+00
           -0.12500000000000D+00  0.37500000000000D+00  0.50000000000000D+00
            0.00000000000000D+00  0.50000000000000D+00  0.50000000000000D+00
            0.12500000000000D+00  0.50000000000000D+00  0.50000000000000D+00
            0.25000000000000D+00  0.50000000000000D+00  0.50000000000000D+00
            0.37500000000000D+00  0.50000000000000D+00  0.50000000000000D+00
            0.50000000000000D+00  0.50000000000000D+00  0.50000000000000D+00
           -0.37500000000000D+00  0.50000000000000D+00  0.50000000000000D+00
           -0.25000000000000D+00  0.50000000000000D+00  0.50000000000000D+00
           -0.12500000000000D+00  0.50000000000000D+00  0.50000000000000D+00
            0.00000000000000D+00 -0.37500000000000D+00  0.50000000000000D+00
            0.12500000000000D+00 -0.37500000000000D+00  0.50000000000000D+00
            0.25000000000000D+00 -0.37500000000000D+00  0.50000000000000D+00
            0.37500000000000D+00 -0.37500000000000D+00  0.50000000000000D+00
            0.50000000000000D+00 -0.37500000000000D+00  0.50000000000000D+00
           -0.37500000000000D+00 -0.37500000000000D+00  0.50000000000000D+00
           -0.25000000000000D+00 -0.37500000000000D+00  0.50000000000000D+00
           -0.12500000000000D+00 -0.37500000000000D+00  0.50000000000000D+00
            0.00000000000000D+00 -0.25000000000000D+00  0.50000000000000D+00
            0.12500000000000D+00 -0.25000000000000D+00  0.50000000000000D+00
            0.25000000000000D+00 -0.25000000000000D+00  0.50000000000000D+00
            0.37500000000000D+00 -0.25000000000000D+00  0.50000000000000D+00
            0.50000000000000D+00 -0.25000000000000D+00  0.50000000000000D+00
           -0.37500000000000D+00 -0.25000000000000D+00  0.50000000000000D+00
           -0.25000000000000D+00 -0.25000000000000D+00  0.50000000000000D+00
           -0.12500000000000D+00 -0.25000000000000D+00  0.50000000000000D+00
            0.00000000000000D+00 -0.12500000000000D+00  0.50000000000000D+00
            0.12500000000000D+00 -0.12500000000000D+00  0.50000000000000D+00
            0.25000000000000D+00 -0.12500000000000D+00  0.50000000000000D+00
            0.37500000000000D+00 -0.12500000000000D+00  0.50000000000000D+00
            0.50000000000000D+00 -0.12500000000000D+00  0.50000000000000D+00
           -0.37500000000000D+00 -0.12500000000000D+00  0.50000000000000D+00
           -0.25000000000000D+00 -0.12500000000000D+00  0.50000000000000D+00
           -0.12500000000000D+00 -0.12500000000000D+00  0.50000000000000D+00
            0.00000000000000D+00  0.00000000000000D+00 -0.25000000000000D+00
            0.12500000000000D+00  0.00000000000000D+00 -0.25000000000000D+00
            0.25000000000000D+00  0.00000000000000D+00 -0.25000000000000D+00
            0.37500000000000D+00  0.00000000000000D+00 -0.25000000000000D+00
            0.50000000000000D+00  0.00000000000000D+00 -0.25000000000000D+00
           -0.37500000000000D+00  0.00000000000000D+00 -0.25000000000000D+00
           -0.25000000000000D+00  0.00000000000000D+00 -0.25000000000000D+00
           -0.12500000000000D+00  0.00000000000000D+00 -0.25000000000000D+00
            0.00000000000000D+00  0.12500000000000D+00 -0.25000000000000D+00
            0.12500000000000D+00  0.12500000000000D+00 -0.25000000000000D+00
            0.25000000000000D+00  0.12500000000000D+00 -0.25000000000000D+00
            0.37500000000000D+00  0.12500000000000D+00 -0.25000000000000D+00
            0.50000000000000D+00  0.12500000000000D+00 -0.25000000000000D+00
           -0.37500000000000D+00  0.12500000000000D+00 -0.25000000000000D+00
           -0.25000000000000D+00  0.12500000000000D+00 -0.25000000000000D+00
           -0.12500000000000D+00  0.12500000000000D+00 -0.25000000000000D+00
            0.00000000000000D+00  0.25000000000000D+00 -0.25000000000000D+00
            0.12500000000000D+00  0.25000000000000D+00 -0.25000000000000D+00
            0.25000000000000D+00  0.25000000000000D+00 -0.25000000000000D+00
            0.37500000000000D+00  0.25000000000000D+00 -0.25000000000000D+00
            0.50000000000000D+00  0.25000000000000D+00 -0.25000000000000D+00
           -0.37500000000000D+00  0.25000000000000D+00 -0.25000000000000D+00
           -0.25000000000000D+00  0.25000000000000D+00 -0.25000000000000D+00
           -0.12500000000000D+00  0.25000000000000D+00 -0.25000000000000D+00
            0.00000000000000D+00  0.37500000000000D+00 -0.25000000000000D+00
            0.12500000000000D+00  0.37500000000000D+00 -0.25000000000000D+00
            0.25000000000000D+00  0.37500000000000D+00 -0.25000000000000D+00
            0.37500000000000D+00  0.37500000000000D+00 -0.25000000000000D+00
            0.50000000000000D+00  0.37500000000000D+00 -0.25000000000000D+00
           -0.37500000000000D+00  0.37500000000000D+00 -0.25000000000000D+00
           -0.25000000000000D+00  0.37500000000000D+00 -0.25000000000000D+00
           -0.12500000000000D+00  0.37500000000000D+00 -0.25000000000000D+00
            0.00000000000000D+00  0.50000000000000D+00 -0.25000000000000D+00
            0.12500000000000D+00  0.50000000000000D+00 -0.25000000000000D+00
            0.25000000000000D+00  0.50000000000000D+00 -0.25000000000000D+00
            0.37500000000000D+00  0.50000000000000D+00 -0.25000000000000D+00
            0.50000000000000D+00  0.50000000000000D+00 -0.25000000000000D+00
           -0.37500000000000D+00  0.50000000000000D+00 -0.25000000000000D+00
           -0.25000000000000D+00  0.50000000000000D+00 -0.25000000000000D+00
           -0.12500000000000D+00  0.50000000000000D+00 -0.25000000000000D+00
            0.00000000000000D+00 -0.37500000000000D+00 -0.25000000000000D+00
            0.12500000000000D+00 -0.37500000000000D+00 -0.25000000000000D+00
            0.25000000000000D+00 -0.37500000000000D+00 -0.25000000000000D+00
            0.37500000000000D+00 -0.37500000000000D+00 -0.25000000000000D+00
            0.50000000000000D+00 -0.37500000000000D+00 -0.25000000000000D+00
           -0.37500000000000D+00 -0.37500000000000D+00 -0.25000000000000D+00
           -0.25000000000000D+00 -0.37500000000000D+00 -0.25000000000000D+00
           -0.12500000000000D+00 -0.37500000000000D+00 -0.25000000000000D+00
            0.00000000000000D+00 -0.25000000000000D+00 -0.25000000000000D+00
            0.12500000000000D+00 -0.25000000000000D+00 -0.25000000000000D+00
            0.25000000000000D+00 -0.25000000000000D+00 -0.25000000000000D+00
            0.37500000000000D+00 -0.25000000000000D+00 -0.25000000000000D+00
            0.50000000000000D+00 -0.25000000000000D+00 -0.25000000000000D+00
           -0.37500000000000D+00 -0.25000000000000D+00 -0.25000000000000D+00
           -0.25000000000000D+00 -0.25000000000000D+00 -0.25000000000000D+00
           -0.12500000000000D+00 -0.25000000000000D+00 -0.25000000000000D+00
            0.00000000000000D+00 -0.12500000000000D+00 -0.25000000000000D+00
            0.12500000000000D+00 -0.12500000000000D+00 -0.25000000000000D+00
            0.25000000000000D+00 -0.12500000000000D+00 -0.25000000000000D+00
            0.37500000000000D+00 -0.12500000000000D+00 -0.25000000000000D+00
            0.50000000000000D+00 -0.12500000000000D+00 -0.25000000000000D+00
           -0.37500000000000D+00 -0.12500000000000D+00 -0.25000000000000D+00
           -0.25000000000000D+00 -0.12500000000000D+00 -0.25000000000000D+00
           -0.12500000000000D+00 -0.12500000000000D+00 -0.25000000000000D+00
    kptnrm  0.10000000000000D+01
     ngfft        27   27   64
    nspden         1
   nspinor         1
       occ  0.20000000000000D+01  0.20000000000000D+01  0.20000000000000D+01
            0.20000000000000D+01  0.20000000000000D+01  0.20000000000000D+01
            0.20000000000000D+01  0.20000000000000D+01  0.20000000000000D+01
            0.20000000000000D+01  0.20000000000000D+01  0.20000000000000D+01
            0.20000000000000D+01  0.20000000000000D+01  0.20000000000000D+01
            0.20000000000000D+01  0.20000000000000D+01  0.20000000000000D+01
            0.20000000000000D+01  0.20000000000000D+01  0.20000000000000D+01
            0.20000000000000D+01  0.20000000000000D+01  0.20000000000000D+01
            0.20000000000000D+01  0.20000000000000D+01  0.20000000000000D+01
            0.20000000000000D+01  0.20000000000000D+01  0.20000000000000D+01
            0.20000000000000D+01  0.20000000000000D+01  0.20000000000000D+01
            0.20000000000000D+01  0.20000000000000D+01  0.20000000000000D+01
            0.20000000000000D+01  0.20000000000000D+01  0.00000000000000D+00
            0.00000000000000D+00  0.00000000000000D+00  0.00000000000000D+00
            0.00000000000000D+00  0.00000000000000D+00  0.00000000000000D+00
            0.00000000000000D+00  0.00000000000000D+00  0.00000000000000D+00
            0.00000000000000D+00  0.00000000000000D+00
     rprim  0.10000000000000D+01  0.00000000000000D+00  0.00000000000000D+00
            0.00000000000000D+00  0.10000000000000D+01  0.00000000000000D+00
            0.00000000000000D+00  0.00000000000000D+00  0.10000000000000D+01
  dfpt_sciss  0.00000000000000D+00
    spinat  0.00000000000000D+00  0.00000000000000D+00  0.00000000000000D+00
            0.00000000000000D+00  0.00000000000000D+00  0.00000000000000D+00
            0.00000000000000D+00  0.00000000000000D+00  0.00000000000000D+00
            0.00000000000000D+00  0.00000000000000D+00  0.00000000000000D+00
            0.00000000000000D+00  0.00000000000000D+00  0.00000000000000D+00
            0.00000000000000D+00  0.00000000000000D+00  0.00000000000000D+00
            0.00000000000000D+00  0.00000000000000D+00  0.00000000000000D+00
            0.00000000000000D+00  0.00000000000000D+00  0.00000000000000D+00
    symafm         1    1    1    1    1    1    1    1    1    1    1    1
                   1    1    1    1
    symrel         1    0    0    0    1    0    0    0    1
                  -1    0    0    0   -1    0    0    0   -1
                  -1    0    0    0    1    0    0    0   -1
                   1    0    0    0   -1    0    0    0    1
                  -1    0    0    0   -1    0    0    0    1
                   1    0    0    0    1    0    0    0   -1
                   1    0    0    0   -1    0    0    0   -1
                  -1    0    0    0    1    0    0    0    1
                   0    1    0    1    0    0    0    0    1
                   0   -1    0   -1    0    0    0    0   -1
                   0   -1    0    1    0    0    0    0   -1
                   0    1    0   -1    0    0    0    0    1
                   0   -1    0   -1    0    0    0    0    1
                   0    1    0    1    0    0    0    0   -1
                   0    1    0   -1    0    0    0    0   -1
                   0   -1    0    1    0    0    0    0    1
     tnons  0.00000000000000D+00  0.00000000000000D+00  0.00000000000000D+00
            0.00000000000000D+00  0.00000000000000D+00  0.00000000000000D+00
            0.00000000000000D+00  0.00000000000000D+00  0.00000000000000D+00
            0.00000000000000D+00  0.00000000000000D+00  0.00000000000000D+00
            0.00000000000000D+00  0.00000000000000D+00  0.00000000000000D+00
            0.00000000000000D+00  0.00000000000000D+00  0.00000000000000D+00
            0.00000000000000D+00  0.00000000000000D+00  0.00000000000000D+00
            0.00000000000000D+00  0.00000000000000D+00  0.00000000000000D+00
            0.00000000000000D+00  0.00000000000000D+00  0.00000000000000D+00
            0.00000000000000D+00  0.00000000000000D+00  0.00000000000000D+00
            0.00000000000000D+00  0.00000000000000D+00  0.00000000000000D+00
            0.00000000000000D+00  0.00000000000000D+00  0.00000000000000D+00
            0.00000000000000D+00  0.00000000000000D+00  0.00000000000000D+00
            0.00000000000000D+00  0.00000000000000D+00  0.00000000000000D+00
            0.00000000000000D+00  0.00000000000000D+00  0.00000000000000D+00
            0.00000000000000D+00  0.00000000000000D+00  0.00000000000000D+00
    tolwfr  0.10000000000000D+01
   tphysel  0.00000000000000D+00
    tsmear  0.36749325397962D-02
     typat         1    2    2    3    4    4    4    4
       wtk  0.39062500000000D-02  0.39062500000000D-02  0.39062500000000D-02
            0.39062500000000D-02  0.39062500000000D-02  0.39062500000000D-02
            0.39062500000000D-02  0.39062500000000D-02  0.39062500000000D-02
            0.39062500000000D-02  0.39062500000000D-02  0.39062500000000D-02
            0.39062500000000D-02  0.39062500000000D-02  0.39062500000000D-02
            0.39062500000000D-02  0.39062500000000D-02  0.39062500000000D-02
            0.39062500000000D-02  0.39062500000000D-02  0.39062500000000D-02
            0.39062500000000D-02  0.39062500000000D-02  0.39062500000000D-02
            0.39062500000000D-02  0.39062500000000D-02  0.39062500000000D-02
            0.39062500000000D-02  0.39062500000000D-02  0.39062500000000D-02
            0.39062500000000D-02  0.39062500000000D-02  0.39062500000000D-02
            0.39062500000000D-02  0.39062500000000D-02  0.39062500000000D-02
            0.39062500000000D-02  0.39062500000000D-02  0.39062500000000D-02
            0.39062500000000D-02  0.39062500000000D-02  0.39062500000000D-02
            0.39062500000000D-02  0.39062500000000D-02  0.39062500000000D-02
            0.39062500000000D-02  0.39062500000000D-02  0.39062500000000D-02
            0.39062500000000D-02  0.39062500000000D-02  0.39062500000000D-02
            0.39062500000000D-02  0.39062500000000D-02  0.39062500000000D-02
            0.39062500000000D-02  0.39062500000000D-02  0.39062500000000D-02
            0.39062500000000D-02  0.39062500000000D-02  0.39062500000000D-02
            0.39062500000000D-02  0.39062500000000D-02  0.39062500000000D-02
            0.39062500000000D-02  0.39062500000000D-02  0.39062500000000D-02
            0.39062500000000D-02  0.39062500000000D-02  0.39062500000000D-02
            0.39062500000000D-02  0.39062500000000D-02  0.39062500000000D-02
            0.39062500000000D-02  0.39062500000000D-02  0.39062500000000D-02
            0.39062500000000D-02  0.39062500000000D-02  0.39062500000000D-02
            0.39062500000000D-02  0.39062500000000D-02  0.39062500000000D-02
            0.39062500000000D-02  0.39062500000000D-02  0.39062500000000D-02
            0.39062500000000D-02  0.39062500000000D-02  0.39062500000000D-02
            0.39062500000000D-02  0.39062500000000D-02  0.39062500000000D-02
            0.39062500000000D-02  0.39062500000000D-02  0.39062500000000D-02
            0.39062500000000D-02  0.39062500000000D-02  0.39062500000000D-02
            0.39062500000000D-02  0.39062500000000D-02  0.39062500000000D-02
            0.39062500000000D-02  0.39062500000000D-02  0.39062500000000D-02
            0.39062500000000D-02  0.39062500000000D-02  0.39062500000000D-02
            0.39062500000000D-02  0.39062500000000D-02  0.39062500000000D-02
            0.39062500000000D-02  0.39062500000000D-02  0.39062500000000D-02
            0.39062500000000D-02  0.39062500000000D-02  0.39062500000000D-02
            0.39062500000000D-02  0.39062500000000D-02  0.39062500000000D-02
            0.39062500000000D-02  0.39062500000000D-02  0.39062500000000D-02
            0.39062500000000D-02  0.39062500000000D-02  0.39062500000000D-02
            0.39062500000000D-02  0.39062500000000D-02  0.39062500000000D-02
            0.39062500000000D-02  0.39062500000000D-02  0.39062500000000D-02
            0.39062500000000D-02  0.39062500000000D-02  0.39062500000000D-02
            0.39062500000000D-02  0.39062500000000D-02  0.39062500000000D-02
            0.39062500000000D-02  0.39062500000000D-02  0.39062500000000D-02
            0.39062500000000D-02  0.39062500000000D-02  0.39062500000000D-02
            0.39062500000000D-02  0.39062500000000D-02  0.39062500000000D-02
            0.39062500000000D-02  0.39062500000000D-02  0.39062500000000D-02
            0.39062500000000D-02  0.39062500000000D-02  0.39062500000000D-02
            0.39062500000000D-02  0.39062500000000D-02  0.39062500000000D-02
            0.39062500000000D-02  0.39062500000000D-02  0.39062500000000D-02
            0.39062500000000D-02  0.39062500000000D-02  0.39062500000000D-02
            0.39062500000000D-02  0.39062500000000D-02  0.39062500000000D-02
            0.39062500000000D-02  0.39062500000000D-02  0.39062500000000D-02
            0.39062500000000D-02  0.39062500000000D-02  0.39062500000000D-02
            0.39062500000000D-02  0.39062500000000D-02  0.39062500000000D-02
            0.39062500000000D-02  0.39062500000000D-02  0.39062500000000D-02
            0.39062500000000D-02  0.39062500000000D-02  0.39062500000000D-02
            0.39062500000000D-02  0.39062500000000D-02  0.39062500000000D-02
            0.39062500000000D-02  0.39062500000000D-02  0.39062500000000D-02
            0.39062500000000D-02  0.39062500000000D-02  0.39062500000000D-02
            0.39062500000000D-02  0.39062500000000D-02  0.39062500000000D-02
            0.39062500000000D-02  0.39062500000000D-02  0.39062500000000D-02
            0.39062500000000D-02  0.39062500000000D-02  0.39062500000000D-02
            0.39062500000000D-02  0.39062500000000D-02  0.39062500000000D-02
            0.39062500000000D-02  0.39062500000000D-02  0.39062500000000D-02
            0.39062500000000D-02  0.39062500000000D-02  0.39062500000000D-02
            0.39062500000000D-02  0.39062500000000D-02  0.39062500000000D-02
            0.39062500000000D-02  0.39062500000000D-02  0.39062500000000D-02
            0.39062500000000D-02  0.39062500000000D-02  0.39062500000000D-02
            0.39062500000000D-02  0.39062500000000D-02  0.39062500000000D-02
            0.39062500000000D-02  0.39062500000000D-02  0.39062500000000D-02
            0.39062500000000D-02  0.39062500000000D-02  0.39062500000000D-02
            0.39062500000000D-02  0.39062500000000D-02  0.39062500000000D-02
            0.39062500000000D-02  0.39062500000000D-02  0.39062500000000D-02
            0.39062500000000D-02  0.39062500000000D-02  0.39062500000000D-02
            0.39062500000000D-02  0.39062500000000D-02  0.39062500000000D-02
            0.39062500000000D-02  0.39062500000000D-02  0.39062500000000D-02
            0.39062500000000D-02  0.39062500000000D-02  0.39062500000000D-02
            0.39062500000000D-02  0.39062500000000D-02  0.39062500000000D-02
            0.39062500000000D-02  0.39062500000000D-02  0.39062500000000D-02
            0.39062500000000D-02  0.39062500000000D-02  0.39062500000000D-02
            0.39062500000000D-02  0.39062500000000D-02  0.39062500000000D-02
            0.39062500000000D-02  0.39062500000000D-02  0.39062500000000D-02
            0.39062500000000D-02
      xred  0.00000000000000D+00  0.00000000000000D+00  0.00000000000000D+00
            0.50000000000000D+00  0.50000000000000D+00  0.69628160197500D+00
            0.50000000000000D+00  0.50000000000000D+00  0.30371839802500D+00
            0.00000000000000D+00  0.00000000000000D+00  0.50000000000000D+00
            0.00000000000000D+00  0.00000000000000D+00  0.79334538250800D+00
            0.00000000000000D+00  0.00000000000000D+00  0.20665461749200D+00
            0.00000000000000D+00  0.50000000000000D+00  0.50000000000000D+00
            0.50000000000000D+00  0.00000000000000D+00  0.50000000000000D+00
     znucl  0.80000000000000D+02  0.56000000000000D+02  0.29000000000000D+02
            0.80000000000000D+01
      zion  0.12000000000000D+02  0.10000000000000D+02  0.19000000000000D+02
            0.60000000000000D+01
 
  Description of the PAW dataset(s)
  vrsio8 (for pseudopotentials)=100401
  usepaw =  1
  Atom type=   1 basis_size=  6   lmn_size=   18
    Basis functions= 0 0 1 1 2 2
    r_PAW=  2.403 shape_type=  2  r_shape=  2.264
    Dij0=     (only the  27 values different from zero)
       i    j     Dij0        i    j     Dij0        i    j     Dij0        i    j     Dij0
       1    1  2.43266E-01    1    2 -1.31462E+00    2    2  8.72981E+00    3    3  5.84244E-02
       4    4  5.84244E-02    5    5  5.84244E-02    3    6 -8.64821E-01    6    6  1.72889E+01
       4    7 -8.64821E-01    7    7  1.72889E+01    5    8 -8.64821E-01    8    8  1.72889E+01
       9    9  6.36835E-01   10   10  6.36835E-01   11   11  6.36835E-01   12   12  6.36835E-01
      13   13  6.36835E-01    9   14  1.04744E+00   14   14 -1.42732E+01   10   15  1.04744E+00
      15   15 -1.42732E+01   11   16  1.04744E+00   16   16 -1.42732E+01   12   17  1.04744E+00
      17   17 -1.42732E+01   13   18  1.04744E+00   18   18 -1.42732E+01
  Atom type=   2 basis_size=  6   lmn_size=   18
    Basis functions= 0 0 1 1 2 2
    r_PAW=  2.315 shape_type=  2  r_shape=  2.012
    Dij0=     (only the  27 values different from zero)
       i    j     Dij0        i    j     Dij0        i    j     Dij0        i    j     Dij0
       1    1 -3.44193E-01    1    2 -4.99803E-02    2    2 -1.25318E-02    3    3 -3.65795E-01
       4    4 -3.65795E-01    5    5 -3.65795E-01    3    6  4.23027E-02    6    6 -1.42456E+00
       4    7  4.23027E-02    7    7 -1.42456E+00    5    8  4.23027E-02    8    8 -1.42456E+00
       9    9 -3.43016E-02   10   10 -3.43016E-02   11   11 -3.43016E-02   12   12 -3.43016E-02
      13   13 -3.43016E-02    9   14  1.25930E-01   14   14  1.00965E+00   10   15  1.25930E-01
      15   15  1.00965E+00   11   16  1.25930E-01   16   16  1.00965E+00   12   17  1.25930E-01
      17   17  1.00965E+00   13   18  1.25930E-01   18   18  1.00965E+00
  Atom type=   3 basis_size=  6   lmn_size=   18
    Basis functions= 0 0 1 1 2 2
    r_PAW=  2.022 shape_type=  2  r_shape=  1.807
    Dij0=     (only the  27 values different from zero)
       i    j     Dij0        i    j     Dij0        i    j     Dij0        i    j     Dij0
       1    1 -1.86586E+00    1    2 -7.84457E-01    2    2 -3.03479E-01    3    3 -8.01475E-01
       4    4 -8.01475E-01    5    5 -8.01475E-01    3    6  4.16878E+00    6    6 -2.27151E+01
       4    7  4.16878E+00    7    7 -2.27151E+01    5    8  4.16878E+00    8    8 -2.27151E+01
       9    9  1.01212E+00   10   10  1.01212E+00   11   11  1.01212E+00   12   12  1.01212E+00
      13   13  1.01212E+00    9   14 -3.26871E+00   14   14  9.49970E+00   10   15 -3.26871E+00
      15   15  9.49970E+00   11   16 -3.26871E+00   16   16  9.49970E+00   12   17 -3.26871E+00
      17   17  9.49970E+00   13   18 -3.26871E+00   18   18  9.49970E+00
  Atom type=   4 basis_size=  4   lmn_size=    8
    Basis functions= 0 0 1 1
    r_PAW=  1.415 shape_type=  2  r_shape=  1.202
    Dij0=     (only the  12 values different from zero)
       i    j     Dij0        i    j     Dij0        i    j     Dij0        i    j     Dij0
       1    1  4.26924E-01    1    2 -1.15918E+00    2    2  3.13411E+00    3    3  3.21024E-01
       4    4  3.21024E-01    5    5  3.21024E-01    3    6 -2.31575E+00    6    6  1.61464E+01
       4    7 -2.31575E+00    7    7  1.61464E+01    5    8 -2.31575E+00    8    8  1.61464E+01
 
 **** Database of total energy derivatives ****
 Number of data blocks=   14
  
 Total energy                 - # elements :       1
 -0.35717912009243D+03  0.00000000000000D+00
  
 1st derivatives              - # elements :      30
   1   1  0.00000000000000D+00  0.00000000000000D+00
   2   1  0.00000000000000D+00  0.00000000000000D+00
   3   1  0.00000000000000D+00  0.00000000000000D+00
   1   2 -0.11832913578315D-29  0.00000000000000D+00
   2   2 -0.11832913578315D-29  0.00000000000000D+00
   3   2 -0.14771625147696D-04  0.00000000000000D+00
   1   3  0.23665827156630D-29  0.00000000000000D+00
   2   3  0.23665827156630D-29  0.00000000000000D+00
   3   3  0.14771625147696D-04  0.00000000000000D+00
   1   4  0.00000000000000D+00  0.00000000000000D+00
   2   4  0.00000000000000D+00  0.00000000000000D+00
   3   4  0.00000000000000D+00  0.00000000000000D+00
   1   5  0.00000000000000D+00  0.00000000000000D+00
   2   5  0.00000000000000D+00  0.00000000000000D+00
   3   5  0.54407648977006D-05  0.00000000000000D+00
   1   6  0.00000000000000D+00  0.00000000000000D+00
   2   6  0.00000000000000D+00  0.00000000000000D+00
   3   6 -0.54407648977006D-05  0.00000000000000D+00
   1   7  0.00000000000000D+00  0.00000000000000D+00
   2   7  0.00000000000000D+00  0.00000000000000D+00
   3   7  0.00000000000000D+00  0.00000000000000D+00
   1   8  0.00000000000000D+00  0.00000000000000D+00
   2   8  0.00000000000000D+00  0.00000000000000D+00
   3   8  0.00000000000000D+00  0.00000000000000D+00
   1  11  0.39425432190009D-03  0.00000000000000D+00
   2  11  0.39425432190009D-03  0.00000000000000D+00
   3  11  0.32967854995139D-03  0.00000000000000D+00
   1  12  0.00000000000000D+00  0.00000000000000D+00
   2  12  0.00000000000000D+00  0.00000000000000D+00
   3  12  0.00000000000000D+00  0.00000000000000D+00
  
 2nd derivatives (non-stat.)  - # elements :     678
 qpt  0.00000000E+00  0.00000000E+00  0.00000000E+00   1.0
   1   1   1   1  0.19390431731092D+01  0.00000000000000D+00
   2   1   1   1  0.22301870555100D-14  0.00000000000000D+00
   3   1   1   1  0.32599791670279D-14  0.00000000000000D+00
   1   2   1   1 -0.59859890732026D-01  0.16508966197902D-15
   2   2   1   1 -0.75217532191316D-16 -0.36487246895135D-17
   3   2   1   1 -0.13814828620946D-13  0.85281530355150D-16
   1   3   1   1 -0.59859890732001D-01 -0.25759887788832D-15
   2   3   1   1 -0.21534462153347D-14  0.24844410010056D-17
   3   3   1   1  0.10495331901041D-13 -0.99842763084706D-16
   1   4   1   1  0.18366154005927D-02  0.00000000000000D+00
   2   4   1   1 -0.22715475543003D-16  0.00000000000000D+00
   3   4   1   1  0.64761948593023D-17  0.00000000000000D+00
   1   5   1   1 -0.88264953402988D+00  0.65410195259118D-16
   2   5   1   1  0.64155382201412D-17  0.24063856545866D-17
   3   5   1   1 -0.42440182425897D-16  0.22415512907583D-16
   1   6   1   1 -0.88264953403012D+00  0.17335878868747D-15
   2   6   1   1  0.64194714091489D-17 -0.25074817838657D-17
   3   6   1   1  0.42444220667968D-16 -0.28886430434753D-16
   1   7   1   1  0.11918330235062D-01  0.00000000000000D+00
   2   7   1   1  0.73501350019598D-17  0.00000000000000D+00
   3   7   1   1 -0.62379946300746D-17  0.00000000000000D+00
   1   8   1   1 -0.81429261330893D-01  0.00000000000000D+00
   2   8   1   1  0.10070229277420D-17  0.00000000000000D+00
   3   8   1   1  0.59275313578487D-16  0.00000000000000D+00
   2  10   1   1  0.00000000000000D+00  0.00000000000000D+00
   3  10   1   1  0.00000000000000D+00  0.00000000000000D+00
   1   1   2   1  0.22301870555100D-14  0.00000000000000D+00
   2   1   2   1  0.19390431731088D+01  0.00000000000000D+00
   3   1   2   1  0.94300796434695D-15  0.00000000000000D+00
   1   2   2   1 -0.75217532191316D-16 -0.36487246895135D-17
   2   2   2   1 -0.59859890732029D-01 -0.37493378175958D-15
   3   2   2   1 -0.12560206029303D-13  0.13495174634195D-15
   1   3   2   1 -0.21534462153347D-14  0.24844410010056D-17
   2   3   2   1 -0.59859890732000D-01  0.31574949431305D-15
   3   3   2   1  0.11750854243297D-13 -0.12575017028335D-15
   1   4   2   1 -0.22715475543003D-16  0.00000000000000D+00
   2   4   2   1  0.18366154005980D-02  0.00000000000000D+00
   3   4   2   1  0.47310318774111D-16  0.00000000000000D+00
   1   5   2   1  0.64155382201412D-17  0.24063856545866D-17
   2   5   2   1 -0.88264953402988D+00  0.11226716749511D-15
   3   5   2   1 -0.62452305620358D-16 -0.37574555312910D-16
   1   6   2   1  0.64194714091489D-17 -0.25074817838657D-17
   2   6   2   1 -0.88264953403012D+00  0.10198332536217D-15
   3   6   2   1  0.89771262949618D-16  0.10410541949137D-15
   1   7   2   1  0.73501350019598D-17  0.00000000000000D+00
   2   7   2   1 -0.81429261330894D-01  0.00000000000000D+00
   3   7   2   1 -0.24796970995032D-16  0.00000000000000D+00
   1   8   2   1  0.10070229277420D-17  0.00000000000000D+00
   2   8   2   1  0.11918330235063D-01  0.00000000000000D+00
   3   8   2   1 -0.18348848427641D-15  0.00000000000000D+00
   1  10   2   1  0.00000000000000D+00  0.00000000000000D+00
   3  10   2   1  0.00000000000000D+00  0.00000000000000D+00
   1   1   3   1  0.32599791670279D-14  0.00000000000000D+00
   2   1   3   1  0.94300796434695D-15  0.00000000000000D+00
   3   1   3   1  0.13369379536901D+03  0.00000000000000D+00
   1   2   3   1 -0.13814828620946D-13  0.85281530355150D-16
   2   2   3   1 -0.12560206029303D-13  0.13495174634195D-15
   3   2   3   1 -0.87780741631993D+01 -0.44426361673499D-14
   1   3   3   1  0.10495331901041D-13 -0.99842763084706D-16
   2   3   3   1  0.11750854243297D-13 -0.12575017028335D-15
   3   3   3   1 -0.87780741631995D+01 -0.65113328625941D-14
   1   4   3   1  0.64761948593017D-17  0.00000000000000D+00
   2   4   3   1  0.47310318774110D-16  0.00000000000000D+00
   3   4   3   1 -0.26508017587928D+01  0.00000000000000D+00
   1   5   3   1 -0.42440182425897D-16  0.22415512907583D-16
   2   5   3   1 -0.62452305620358D-16 -0.37574555312910D-16
   3   5   3   1 -0.62388894603168D+02  0.77439776483210D-14
   1   6   3   1  0.42444220667968D-16 -0.28886430434753D-16
   2   6   3   1  0.89771262949618D-16  0.10410541949137D-15
   3   6   3   1 -0.62388894603167D+02 -0.13765274426414D-15
   1   7   3   1 -0.62379946300749D-17  0.00000000000000D+00
   2   7   3   1 -0.24796970995033D-16  0.00000000000000D+00
   3   7   3   1  0.54429910660963D+01  0.00000000000000D+00
   1   8   3   1  0.59275313578486D-16  0.00000000000000D+00
   2   8   3   1 -0.18348848427641D-15  0.00000000000000D+00
   3   8   3   1  0.54429910660964D+01  0.00000000000000D+00
   1  10   3   1  0.00000000000000D+00  0.00000000000000D+00
   2  10   3   1  0.00000000000000D+00  0.00000000000000D+00
   1   1   1   2 -0.59893320159345D-01 -0.16508966197902D-15
   2   1   1   2 -0.75217532191316D-16  0.36487246895135D-17
   3   1   1   2 -0.13814828620946D-13 -0.85281530355150D-16
   1   2   1   2  0.18715219726841D+01  0.00000000000000D+00
   2   2   1   2 -0.53027423673359D-14  0.00000000000000D+00
   3   2   1   2 -0.10424328568854D-12  0.00000000000000D+00
   1   3   1   2  0.48127946016034D-01 -0.17208152923441D-15
   2   3   1   2 -0.19939809003426D-15  0.35872978349725D-17
   3   3   1   2  0.34667656002707D-14  0.89505513400313D-16
   1   4   1   2 -0.69376952371344D+00  0.24185500257871D-15
   2   4   1   2 -0.12628358913124D-14 -0.14101802410845D-17
   3   4   1   2  0.56230737050332D-13  0.18404984170403D-15
   1   5   1   2 -0.46893808914789D+00 -0.22028447080576D-15
   2   5   1   2  0.87305601605239D-14 -0.24204497585872D-17
   3   5   1   2 -0.37483858801303D-13 -0.65865393393113D-16
   1   6   1   2 -0.22580430356340D-01  0.54406031528993D-17
   2   6   1   2 -0.42950966652556D-16 -0.28907833808156D-19
   3   6   1   2 -0.86718423159273D-16 -0.22833407144527D-17
   1   7   1   2 -0.54095320014612D+00  0.32930709732767D-15
   2   7   1   2 -0.94610302426678D-15  0.24675022128208D-17
   3   7   1   2  0.97495861245846D-13  0.93479734871121D-17
   1   8   1   2 -0.26064300927303D+00  0.20394911848543D-15
   2   8   1   2 -0.90131228873068D-15  0.16803830015992D-17
   3   8   1   2 -0.15646723624985D-14  0.94749512713087D-16
   2  10   1   2  0.00000000000000D+00  0.00000000000000D+00
   3  10   1   2  0.00000000000000D+00  0.00000000000000D+00
   1   1   2   2 -0.75217532191316D-16  0.36487246895135D-17
   2   1   2   2 -0.59893320159345D-01  0.37493378175958D-15
   3   1   2   2 -0.12560206029303D-13 -0.13495174634195D-15
   1   2   2   2 -0.53027423673359D-14  0.00000000000000D+00
   2   2   2   2  0.18715219726841D+01  0.00000000000000D+00
   3   2   2   2 -0.11238085857907D-12  0.00000000000000D+00
   1   3   2   2 -0.19939809003426D-15  0.35872978349725D-17
   2   3   2   2  0.48127946016034D-01  0.13377037412224D-15
   3   3   2   2  0.32643881542980D-14  0.17031212460002D-15
   1   4   2   2 -0.12628358913124D-14 -0.14101802410845D-17
   2   4   2   2 -0.69376952371343D+00 -0.28093180975522D-15
   3   4   2   2  0.56933769586016D-13  0.24731790473303D-15
   1   5   2   2  0.87305601605239D-14 -0.24204497585872D-17
   2   5   2   2 -0.46893808914791D+00  0.11623857532042D-15
   3   5   2   2 -0.35836475988752D-13 -0.14966539506330D-16
   1   6   2   2 -0.42950966652556D-16 -0.28907833808156D-19
   2   6   2   2 -0.22580430356340D-01 -0.49167647633939D-17
   3   6   2   2 -0.10505757900244D-15  0.20784621366910D-17
   1   7   2   2 -0.94610302426678D-15  0.24675022128208D-17
   2   7   2   2 -0.26064300927304D+00  0.80794644195801D-17
   3   7   2   2 -0.13953414389377D-14 -0.11797967828199D-17
   1   8   2   2 -0.90131228873068D-15  0.16803830015992D-17
   2   8   2   2 -0.54095320014610D+00  0.34579677579839D-15
   3   8   2   2  0.10207978187475D-12  0.47146540784258D-16
   1  10   2   2  0.00000000000000D+00  0.00000000000000D+00
   3  10   2   2  0.00000000000000D+00  0.00000000000000D+00
   1   1   3   2 -0.13814828544406D-13 -0.85281530355150D-16
   2   1   3   2 -0.12560205952763D-13 -0.13495174634195D-15
   3   1   3   2 -0.87773246818318D+01  0.44426361673499D-14
   1   2   3   2 -0.10424328568854D-12  0.00000000000000D+00
   2   2   3   2 -0.11238085857907D-12  0.00000000000000D+00
   3   2   3   2  0.33869951189052D+02  0.00000000000000D+00
   1   3   3   2  0.34667655060627D-14  0.89505513400313D-16
   2   3   3   2  0.32643880600900D-14  0.17031212460002D-15
   3   3   3   2 -0.10631964859997D+02 -0.48696888313341D-14
   1   4   3   2  0.56230736978262D-13  0.18404984170403D-15
   2   4   3   2  0.56933769513946D-13  0.24731790473303D-15
   3   4   3   2 -0.26985931977552D+01  0.41156421914435D-14
   1   5   3   2 -0.37483858801303D-13 -0.65865393393113D-16
   2   5   3   2 -0.35836475988752D-13 -0.14966539506330D-16
   3   5   3   2 -0.56636343097793D+00  0.61289167242619D-15
   1   6   3   2 -0.86718368896979D-16 -0.22833407144527D-17
   2   6   3   2 -0.10505752474014D-15  0.20784621366910D-17
   3   6   3   2  0.45682088360990D+01  0.22700094829625D-15
   1   7   3   2  0.97495860793936D-13  0.93479734871121D-17
   2   7   3   2 -0.13953414366740D-14 -0.11797967828199D-17
   3   7   3   2 -0.72438637915973D+01 -0.23682355068668D-14
   1   8   3   2 -0.15646723602349D-14  0.94749512713087D-16
   2   8   3   2  0.10207978142284D-12  0.47146540784258D-16
   3   8   3   2 -0.72438637915973D+01 -0.24101194272430D-14
   1  10   3   2  0.00000000000000D+00  0.00000000000000D+00
   2  10   3   2  0.00000000000000D+00  0.00000000000000D+00
   1   1   1   3 -0.59893320159320D-01  0.25759887788832D-15
   2   1   1   3 -0.21534462153347D-14 -0.24844410010056D-17
   3   1   1   3  0.10495331967041D-13  0.99842763084706D-16
   1   2   1   3  0.48127946016034D-01  0.17208152923441D-15
   2   2   1   3 -0.19939809003426D-15 -0.35872978349725D-17
   3   2   1   3  0.34667655060627D-14 -0.89505513400313D-16
   1   3   1   3  0.18715219726842D+01  0.00000000000000D+00
   2   3   1   3  0.22023417264084D-13  0.00000000000000D+00
   3   3   1   3  0.78872126131328D-13  0.00000000000000D+00
   1   4   1   3 -0.69376952371351D+00 -0.59736370710502D-15
   2   4   1   3 -0.27630632537839D-13 -0.20870963057929D-18
   3   4   1   3 -0.56211383201143D-13  0.52709761082241D-16
   1   5   1   3 -0.22580430356340D-01 -0.18068195518703D-16
   2   5   1   3 -0.68002764741879D-16 -0.21693640012766D-19
   3   5   1   3 -0.13738203478445D-15 -0.32100746900564D-17
   1   6   1   3 -0.46893808914791D+00  0.24144277738858D-16
   2   6   1   3  0.87305601641845D-14 -0.78155623815346D-19
   3   6   1   3  0.37483859026861D-13  0.91577079925804D-16
   1   7   1   3 -0.54095320014621D+00 -0.83155116642059D-16
   2   7   1   3 -0.37364428411238D-15  0.22987342167469D-17
   3   7   1   3 -0.77199324358264D-13  0.62892462539091D-16
   1   8   1   3 -0.26064300927300D+00 -0.10482567649042D-15
   2   8   1   3 -0.32885353620671D-15 -0.16746670857907D-17
   3   8   1   3  0.32300073926020D-14  0.53913624414653D-16
   2  10   1   3  0.00000000000000D+00  0.00000000000000D+00
   3  10   1   3  0.00000000000000D+00  0.00000000000000D+00
   1   1   2   3 -0.21534462153347D-14 -0.24844410010056D-17
   2   1   2   3 -0.59893320159316D-01 -0.31574949431305D-15
   3   1   2   3  0.11750854309297D-13  0.12575017028335D-15
   1   2   2   3 -0.19939809003426D-15 -0.35872978349725D-17
   2   2   2   3  0.48127946016034D-01 -0.13377037412224D-15
   3   2   2   3  0.32643880600900D-14 -0.17031212460002D-15
   1   3   2   3  0.22023417264084D-13  0.00000000000000D+00
   2   3   2   3  0.18715219726843D+01  0.00000000000000D+00
   3   3   2   3  0.68526766995281D-13  0.00000000000000D+00
   1   4   2   3 -0.27630632537839D-13 -0.20870963057929D-18
   2   4   2   3 -0.69376952371350D+00  0.13842400612637D-15
   3   4   2   3 -0.46340252223078D-13 -0.36509273643457D-16
   1   5   2   3 -0.68002764741879D-16 -0.21693640012766D-19
   2   5   2   3 -0.22580430356340D-01  0.13102795033891D-16
   3   5   2   3 -0.25191532606301D-15  0.32979727106512D-17
   1   6   2   3  0.87305601641845D-14 -0.78155623815346D-19
   2   6   2   3 -0.46893808914791D+00 -0.14555332559480D-15
   3   6   2   3  0.35836476179104D-13  0.36129778532602D-16
   1   7   2   3 -0.37364428411238D-15  0.22987342167469D-17
   2   7   2   3 -0.26064300927300D+00  0.13671454507442D-16
   3   7   2   3  0.30609210284679D-14  0.10069899147676D-16
   1   8   2   3 -0.32885353620671D-15 -0.16746670857907D-17
   2   8   2   3 -0.54095320014620D+00 -0.18561416334089D-15
   3   8   2   3 -0.75847238593394D-13  0.27557092742018D-16
   1  10   2   3  0.00000000000000D+00  0.00000000000000D+00
   3  10   2   3  0.00000000000000D+00  0.00000000000000D+00
   1   1   3   3  0.10495331901041D-13  0.99842763084706D-16
   2   1   3   3  0.11750854243297D-13  0.12575017028335D-15
   3   1   3   3 -0.87773246818320D+01  0.65113328625941D-14
   1   2   3   3  0.34667656002707D-14 -0.89505513400313D-16
   2   2   3   3  0.32643881542980D-14 -0.17031212460002D-15
   3   2   3   3 -0.10631964859997D+02  0.48696888313341D-14
   1   3   3   3  0.78872126131328D-13  0.00000000000000D+00
   2   3   3   3  0.68526766995281D-13  0.00000000000000D+00
   3   3   3   3  0.33869951189050D+02  0.00000000000000D+00
   1   4   3   3 -0.56211383122123D-13  0.52709761082241D-16
   2   4   3   3 -0.46340252144058D-13 -0.36509273643457D-16
   3   4   3   3 -0.26985931977533D+01  0.28364738408216D-13
   1   5   3   3 -0.13738208072180D-15 -0.32100746900564D-17
   2   5   3   3 -0.25191537200036D-15  0.32979727106512D-17
   3   5   3   3  0.45682088360990D+01  0.78721005257441D-16
   1   6   3   3  0.37483859026861D-13  0.91577079925804D-16
   2   6   3   3  0.35836476179104D-13  0.36129778532602D-16
   3   6   3   3 -0.56636343097793D+00  0.12969671508874D-13
   1   7   3   3 -0.77199324849260D-13  0.62892462539091D-16
   2   7   3   3  0.30609210284679D-14  0.10069899147676D-16
   3   7   3   3 -0.72438637915969D+01 -0.30981195726520D-14
   1   8   3   3  0.32300073926020D-14  0.53913624414653D-16
   2   8   3   3 -0.75847239084390D-13  0.27557092742018D-16
   3   8   3   3 -0.72438637915969D+01 -0.26895608581576D-14
   1  10   3   3  0.00000000000000D+00  0.00000000000000D+00
   2  10   3   3  0.00000000000000D+00  0.00000000000000D+00
   1   1   1   4  0.18488949731803D-02  0.00000000000000D+00
   2   1   1   4 -0.22715475543003D-16  0.00000000000000D+00
   3   1   1   4  0.64761948593017D-17  0.00000000000000D+00
   1   2   1   4 -0.69375749551127D+00 -0.24185500257871D-15
   2   2   1   4 -0.12628358913124D-14  0.14101802410845D-17
   3   2   1   4  0.56230737050332D-13 -0.18404984170403D-15
   1   3   1   4 -0.69375749551133D+00  0.59736370710502D-15
   2   3   1   4 -0.27630632537839D-13  0.20870963057929D-18
   3   3   1   4 -0.56211383122123D-13 -0.52709761082241D-16
   1   4   1   4  0.73757611285946D+01  0.00000000000000D+00
   2   4   1   4  0.28892567809020D-13  0.00000000000000D+00
   3   4   1   4  0.46589694077361D-16  0.00000000000000D+00
   1   5   1   4 -0.22635868654916D-01 -0.93110141100315D-16
   2   5   1   4  0.82299543146322D-17 -0.36440611603794D-17
   3   5   1   4  0.59539548926793D-16 -0.45833253190867D-16
   1   6   1   4 -0.22635868654856D-01  0.10440093030745D-15
   2   6   1   4  0.82299133988200D-17  0.36490825684991D-17
   3   6   1   4 -0.59550561139158D-16  0.45833175024858D-16
   1   7   1   4 -0.77283960332232D+00  0.00000000000000D+00
   2   7   1   4 -0.13514499778798D-15  0.00000000000000D+00
   3   7   1   4 -0.18423792879099D-17  0.00000000000000D+00
   1   8   1   4 -0.56155447149137D+01  0.00000000000000D+00
   2   8   1   4  0.14230122574807D-15  0.00000000000000D+00
   3   8   1   4 -0.70566425645597D-16  0.00000000000000D+00
   2  10   1   4  0.00000000000000D+00  0.00000000000000D+00
   3  10   1   4  0.00000000000000D+00  0.00000000000000D+00
   1   1   2   4 -0.22715475543003D-16  0.00000000000000D+00
   2   1   2   4  0.18488949731852D-02  0.00000000000000D+00
   3   1   2   4  0.47310318774110D-16  0.00000000000000D+00
   1   2   2   4 -0.12628358913124D-14  0.14101802410845D-17
   2   2   2   4 -0.69375749551126D+00  0.28093180975522D-15
   3   2   2   4  0.56933769586016D-13 -0.24731790473303D-15
   1   3   2   4 -0.27630632537839D-13  0.20870963057929D-18
   2   3   2   4 -0.69375749551133D+00 -0.13842400612637D-15
   3   3   2   4 -0.46340252144058D-13  0.36509273643457D-16
   1   4   2   4  0.28892567809020D-13  0.00000000000000D+00
   2   4   2   4  0.73757611285801D+01  0.00000000000000D+00
   3   4   2   4 -0.10796883513611D-13  0.00000000000000D+00
   1   5   2   4  0.82299543146322D-17 -0.36440611603794D-17
   2   5   2   4 -0.22635868654920D-01 -0.16461040596042D-15
   3   5   2   4  0.42802672492997D-16  0.10191647879283D-15
   1   6   2   4  0.82299133988200D-17  0.36490825684991D-17
   2   6   2   4 -0.22635868654859D-01  0.13370329460864D-15
   3   6   2   4 -0.15087335442714D-15 -0.90648723545612D-16
   1   7   2   4 -0.13514499778798D-15  0.00000000000000D+00
   2   7   2   4 -0.56155447149133D+01  0.00000000000000D+00
   3   7   2   4  0.65626497052597D-16  0.00000000000000D+00
   1   8   2   4  0.14230122574807D-15  0.00000000000000D+00
   2   8   2   4 -0.77283960332230D+00  0.00000000000000D+00
   3   8   2   4  0.19849993776031D-15  0.00000000000000D+00
   1  10   2   4  0.00000000000000D+00  0.00000000000000D+00
   3  10   2   4  0.00000000000000D+00  0.00000000000000D+00
   1   1   3   4  0.64761948593017D-17  0.00000000000000D+00
   2   1   3   4  0.47310318774110D-16  0.00000000000000D+00
   3   1   3   4 -0.26502902246370D+01  0.00000000000000D+00
   1   2   3   4  0.56230737050332D-13 -0.18404984170403D-15
   2   2   3   4  0.56933769586016D-13 -0.24731790473303D-15
   3   2   3   4 -0.26985947709822D+01 -0.41156421914435D-14
   1   3   3   4 -0.56211383122123D-13 -0.52709761082241D-16
   2   3   3   4 -0.46340252144058D-13  0.36509273643457D-16
   3   3   3   4 -0.26985947709802D+01 -0.28364738408216D-13
   1   4   3   4  0.46589694077358D-16  0.00000000000000D+00
   2   4   3   4 -0.10796883513611D-13  0.00000000000000D+00
   3   4   3   4  0.14992034620911D+02  0.00000000000000D+00
   1   5   3   4  0.59539548926793D-16 -0.45833253190867D-16
   2   5   3   4  0.42802672492997D-16  0.10191647879283D-15
   3   5   3   4  0.28084854991653D+01  0.30323555511871D-14
   1   6   3   4 -0.59550561139158D-16  0.45833175024858D-16
   2   6   3   4 -0.15087335442714D-15 -0.90648723545612D-16
   3   6   3   4  0.28084854991644D+01 -0.53341984189749D-14
   1   7   3   4 -0.18423792879099D-17  0.00000000000000D+00
   2   7   3   4  0.65626497052600D-16  0.00000000000000D+00
   3   7   3   4 -0.60225247734863D+01  0.00000000000000D+00
   1   8   3   4 -0.70566425645594D-16  0.00000000000000D+00
   2   8   3   4  0.19849993776031D-15  0.00000000000000D+00
   3   8   3   4 -0.60225247734877D+01  0.00000000000000D+00
   1  10   3   4  0.00000000000000D+00  0.00000000000000D+00
   2  10   3   4  0.00000000000000D+00  0.00000000000000D+00
   1   1   1   5 -0.88257536763331D+00 -0.65410195259118D-16
   2   1   1   5  0.64155382201412D-17 -0.24063856545866D-17
   3   1   1   5 -0.42440182425897D-16 -0.22415512907583D-16
   1   2   1   5 -0.46894391731367D+00  0.22028447080576D-15
   2   2   1   5  0.87305601605239D-14  0.24204497585872D-17
   3   2   1   5 -0.37483858801303D-13  0.65865393393113D-16
   1   3   1   5 -0.22556306754385D-01  0.18068195518703D-16
   2   3   1   5 -0.68002764741879D-16  0.21693640012766D-19
   3   3   1   5 -0.13738208072180D-15  0.32100746900564D-17
   1   4   1   5 -0.22634737954874D-01  0.93110141100315D-16
   2   4   1   5  0.82299543146322D-17  0.36440611603794D-17
   3   4   1   5  0.59539548926794D-16  0.45833253190867D-16
   1   5   1   5  0.83277921774720D+00  0.00000000000000D+00
   2   5   1   5 -0.86694926317544D-14  0.00000000000000D+00
   3   5   1   5  0.57326605461359D-13  0.00000000000000D+00
   1   6   1   5  0.43572073618163D+00  0.27487333380005D-17
   2   6   1   5  0.50799049194236D-17 -0.29456032956993D-18
   3   6   1   5  0.13957393922706D-16  0.86481428751628D-17
   1   7   1   5 -0.59224805160833D-01  0.26177827711247D-16
   2   7   1   5 -0.92049921605156D-17 -0.11507561559093D-17
   3   7   1   5  0.30160490979056D-16  0.14474856475695D-16
   1   8   1   5 -0.19711768402946D-01 -0.12720165317159D-15
   2   8   1   5 -0.35851693212464D-17  0.98895346259095D-18
   3   8   1   5 -0.19766578019089D-13 -0.31228132945736D-16
   2  10   1   5  0.00000000000000D+00  0.00000000000000D+00
   3  10   1   5  0.00000000000000D+00  0.00000000000000D+00
   1   1   2   5  0.64155382201412D-17 -0.24063856545866D-17
   2   1   2   5 -0.88257536763332D+00 -0.11226716749511D-15
   3   1   2   5 -0.62452305620358D-16  0.37574555312910D-16
   1   2   2   5  0.87305601605239D-14  0.24204497585872D-17
   2   2   2   5 -0.46894391731369D+00 -0.11623857532042D-15
   3   2   2   5 -0.35836475988752D-13  0.14966539506330D-16
   1   3   2   5 -0.68002764741879D-16  0.21693640012766D-19
   2   3   2   5 -0.22556306754385D-01 -0.13102795033891D-16
   3   3   2   5 -0.25191537200036D-15 -0.32979727106512D-17
   1   4   2   5  0.82299543146322D-17  0.36440611603794D-17
   2   4   2   5 -0.22634737954878D-01  0.16461040596042D-15
   3   4   2   5  0.42802672492997D-16 -0.10191647879283D-15
   1   5   2   5 -0.86694926317544D-14  0.00000000000000D+00
   2   5   2   5  0.83277921774697D+00  0.00000000000000D+00
   3   5   2   5  0.54460765064448D-13  0.00000000000000D+00
   1   6   2   5  0.50799049194236D-17 -0.29456032956993D-18
   2   6   2   5  0.43572073618163D+00 -0.43873131911043D-16
   3   6   2   5  0.25315350200200D-16  0.12046212341508D-16
   1   7   2   5 -0.92049921605156D-17 -0.11507561559093D-17
   2   7   2   5 -0.19711768402948D-01 -0.11712244287092D-15
   3   7   2   5 -0.18431208367045D-13 -0.23842219377327D-16
   1   8   2   5 -0.35851693212464D-17  0.98895346259095D-18
   2   8   2   5 -0.59224805160832D-01 -0.42235678252819D-16
   3   8   2   5  0.53172757924741D-16 -0.25356271551151D-16
   1  10   2   5  0.00000000000000D+00  0.00000000000000D+00
   3  10   2   5  0.00000000000000D+00  0.00000000000000D+00
   1   1   3   5 -0.42440099503767D-16 -0.22415512907583D-16
   2   1   3   5 -0.62452222698228D-16  0.37574555312910D-16
   3   1   3   5 -0.62389145000264D+02 -0.77439776483210D-14
   1   2   3   5 -0.37483858801303D-13  0.65865393393113D-16
   2   2   3   5 -0.35836475988752D-13  0.14966539506330D-16
   3   2   3   5 -0.56195289341233D+00 -0.61289167242619D-15
   1   3   3   5 -0.13738203478445D-15  0.32100746900564D-17
   2   3   3   5 -0.25191532606301D-15 -0.32979727106512D-17
   3   3   3   5  0.45682088360990D+01 -0.78721005257441D-16
   1   4   3   5  0.59539613155300D-16  0.45833253190867D-16
   2   4   3   5  0.42802736721502D-16 -0.10191647879283D-15
   3   4   3   5  0.28086361619943D+01 -0.30323555511871D-14
   1   5   3   5  0.57326602073228D-13  0.00000000000000D+00
   2   5   3   5  0.54460761676317D-13  0.00000000000000D+00
   3   5   3   5  0.64534549382463D+02  0.00000000000000D+00
   1   6   3   5  0.13957460170630D-16  0.86481428751628D-17
   2   6   3   5  0.25315416448124D-16  0.12046212341508D-16
   3   6   3   5 -0.66019218846374D+00 -0.29733337173849D-14
   1   7   3   5  0.30160470237473D-16  0.14474856475695D-16
   2   7   3   5 -0.18431208784091D-13 -0.23842219377327D-16
   3   7   3   5 -0.44292653224685D+01  0.22830607793426D-14
   1   8   3   5 -0.19766578436135D-13 -0.31228132945736D-16
   2   8   3   5  0.53172737183158D-16 -0.25356271551151D-16
   3   8   3   5 -0.44292653224685D+01  0.22830639944748D-14
   1  10   3   5  0.00000000000000D+00  0.00000000000000D+00
   2  10   3   5  0.00000000000000D+00  0.00000000000000D+00
   1   1   1   6 -0.88257536763355D+00 -0.17335878868747D-15
   2   1   1   6  0.64194714091489D-17  0.25074817838657D-17
   3   1   1   6  0.42444501259558D-16  0.28886430434753D-16
   1   2   1   6 -0.22556306754385D-01 -0.54406031528993D-17
   2   2   1   6 -0.42950966652556D-16  0.28907833808156D-19
   3   2   1   6 -0.86718368896979D-16  0.22833407144527D-17
   1   3   1   6 -0.46894391731368D+00 -0.24144277738858D-16
   2   3   1   6  0.87305601641845D-14  0.78155623815346D-19
   3   3   1   6  0.37483859026861D-13 -0.91577079925804D-16
   1   4   1   6 -0.22634737954814D-01 -0.10440093030745D-15
   2   4   1   6  0.82299133988200D-17 -0.36490825684991D-17
   3   4   1   6 -0.59550586378809D-16 -0.45833175024858D-16
   1   5   1   6  0.43572073618163D+00 -0.27487333380005D-17
   2   5   1   6  0.50799049194236D-17  0.29456032956993D-18
   3   5   1   6  0.13957460170630D-16 -0.86481428751628D-17
   1   6   1   6  0.83277921774743D+00  0.00000000000000D+00
   2   6   1   6 -0.86943643062674D-14  0.00000000000000D+00
   3   6   1   6 -0.33055467499188D-13  0.00000000000000D+00
   1   7   1   6 -0.59224805160825D-01 -0.12198918039505D-15
   2   7   1   6 -0.92047612902997D-17  0.11523418637366D-17
   3   7   1   6  0.10635367012540D-17 -0.14474831791622D-16
   1   8   1   6 -0.19711768402968D-01 -0.12721206644736D-15
   2   8   1   6 -0.37694197015817D-17 -0.98895944103499D-18
   3   8   1   6 -0.43395834179663D-14  0.16470238762626D-16
   2  10   1   6  0.00000000000000D+00  0.00000000000000D+00
   3  10   1   6  0.00000000000000D+00  0.00000000000000D+00
   1   1   2   6  0.64194714091489D-17  0.25074817838657D-17
   2   1   2   6 -0.88257536763355D+00 -0.10198332536217D-15
   3   1   2   6  0.89771543541208D-16 -0.10410541949137D-15
   1   2   2   6 -0.42950966652556D-16  0.28907833808156D-19
   2   2   2   6 -0.22556306754385D-01  0.49167647633939D-17
   3   2   2   6 -0.10505752474014D-15 -0.20784621366910D-17
   1   3   2   6  0.87305601641845D-14  0.78155623815346D-19
   2   3   2   6 -0.46894391731369D+00  0.14555332559480D-15
   3   3   2   6  0.35836476179104D-13 -0.36129778532602D-16
   1   4   2   6  0.82299133988200D-17 -0.36490825684991D-17
   2   4   2   6 -0.22634737954817D-01 -0.13370329460864D-15
   3   4   2   6 -0.15087337966679D-15  0.90648723545612D-16
   1   5   2   6  0.50799049194236D-17  0.29456032956993D-18
   2   5   2   6  0.43572073618163D+00  0.43873131911043D-16
   3   5   2   6  0.25315416448124D-16 -0.12046212341508D-16
   1   6   2   6 -0.86943643062674D-14  0.00000000000000D+00
   2   6   2   6  0.83277921774720D+00  0.00000000000000D+00
   3   6   2   6 -0.32013435369386D-13  0.00000000000000D+00
   1   7   2   6 -0.92047612902997D-17  0.11523418637366D-17
   2   7   2   6 -0.19711768402970D-01 -0.11492405872546D-15
   3   7   2   6 -0.36600339474704D-14 -0.49580792194913D-17
   1   8   2   6 -0.37694197015817D-17 -0.98895944103499D-18
   2   8   2   6 -0.59224805160825D-01 -0.40210418560521D-16
   3   8   2   6 -0.22158265267716D-16  0.25583286661066D-16
   1  10   2   6  0.00000000000000D+00  0.00000000000000D+00
   3  10   2   6  0.00000000000000D+00  0.00000000000000D+00
   1   1   3   6  0.42444220667968D-16  0.28886430434753D-16
   2   1   3   6  0.89771262949618D-16 -0.10410541949137D-15
   3   1   3   6 -0.62389145000262D+02  0.13765274426414D-15
   1   2   3   6 -0.86718423159273D-16  0.22833407144527D-17
   2   2   3   6 -0.10505757900244D-15 -0.20784621366910D-17
   3   2   3   6  0.45682088360990D+01 -0.22700094829625D-15
   1   3   3   6  0.37483859026861D-13 -0.91577079925804D-16
   2   3   3   6  0.35836476179104D-13 -0.36129778532602D-16
   3   3   3   6 -0.56195289341233D+00 -0.12969671508874D-13
   1   4   3   6 -0.59550561139158D-16 -0.45833175024858D-16
   2   4   3   6 -0.15087335442714D-15  0.90648723545612D-16
   3   4   3   6  0.28086361619934D+01  0.53341984189749D-14
   1   5   3   6  0.13957393922706D-16 -0.86481428751628D-17
   2   5   3   6  0.25315350200200D-16 -0.12046212341508D-16
   3   5   3   6 -0.66019218846374D+00  0.29733337173849D-14
   1   6   3   6 -0.33055470887319D-13  0.00000000000000D+00
   2   6   3   6 -0.32013438757518D-13  0.00000000000000D+00
   3   6   3   6  0.64534549382461D+02  0.00000000000000D+00
   1   7   3   6  0.10630716623075D-17 -0.14474831791622D-16
   2   7   3   6 -0.36600343709868D-14 -0.49580792194913D-17
   3   7   3   6 -0.44292653224684D+01  0.44042614838782D-14
   1   8   3   6 -0.43395838414827D-14  0.16470238762626D-16
   2   8   3   6 -0.22158730306663D-16  0.25583286661066D-16
   3   8   3   6 -0.44292653224685D+01  0.43917239300384D-14
   1  10   3   6  0.00000000000000D+00  0.00000000000000D+00
   2  10   3   6  0.00000000000000D+00  0.00000000000000D+00
   1   1   1   7  0.11918075231333D-01  0.00000000000000D+00
   2   1   1   7  0.73501350019598D-17  0.00000000000000D+00
   3   1   1   7 -0.62379946300748D-17  0.00000000000000D+00
   1   2   1   7 -0.54096218525215D+00 -0.32930709732767D-15
   2   2   1   7 -0.94610302426678D-15 -0.24675022128208D-17
   3   2   1   7  0.97495861245846D-13 -0.93479734871121D-17
   1   3   1   7 -0.54096218525224D+00  0.83155116642059D-16
   2   3   1   7 -0.37364428411238D-15 -0.22987342167469D-17
   3   3   1   7 -0.77199324849260D-13 -0.62892462539091D-16
   1   4   1   7 -0.77285032265493D+00  0.00000000000000D+00
   2   4   1   7 -0.13514499778798D-15  0.00000000000000D+00
   3   4   1   7 -0.18423792879107D-17  0.00000000000000D+00
   1   5   1   7 -0.59229118868938D-01 -0.26177827711247D-16
   2   5   1   7 -0.92049921605156D-17  0.11507561559093D-17
   3   5   1   7  0.30160490979056D-16 -0.14474856475695D-16
   1   6   1   7 -0.59229118868930D-01  0.12198918039505D-15
   2   6   1   7 -0.92047612902997D-17 -0.11523418637366D-17
   3   6   1   7  0.10630716623075D-17  0.14474831791622D-16
   1   7   1   7  0.31445377461130D+01  0.00000000000000D+00
   2   7   1   7 -0.10297569747675D-13  0.00000000000000D+00
   3   7   1   7 -0.20297401770829D-13  0.00000000000000D+00
   1   8   1   7 -0.12678616906326D+01  0.00000000000000D+00
   2   8   1   7  0.11763521672291D-13  0.00000000000000D+00
   3   8   1   7 -0.22277814467632D-16  0.00000000000000D+00
   2  10   1   7  0.00000000000000D+00  0.00000000000000D+00
   3  10   1   7  0.00000000000000D+00  0.00000000000000D+00
   1   1   2   7  0.73501350019598D-17  0.00000000000000D+00
   2   1   2   7 -0.81429261330894D-01  0.00000000000000D+00
   3   1   2   7 -0.24796970995033D-16  0.00000000000000D+00
   1   2   2   7 -0.94610302426678D-15 -0.24675022128208D-17
   2   2   2   7 -0.26064300927304D+00 -0.80794644195801D-17
   3   2   2   7 -0.13953414389377D-14  0.11797967828199D-17
   1   3   2   7 -0.37364428411238D-15 -0.22987342167469D-17
   2   3   2   7 -0.26064300927300D+00 -0.13671454507442D-16
   3   3   2   7  0.30609210284679D-14 -0.10069899147676D-16
   1   4   2   7 -0.13514499778798D-15  0.00000000000000D+00
   2   4   2   7 -0.56155447149133D+01  0.00000000000000D+00
   3   4   2   7  0.65626497052600D-16  0.00000000000000D+00
   1   5   2   7 -0.92049921605156D-17  0.11507561559093D-17
   2   5   2   7 -0.19711768402948D-01  0.11712244287092D-15
   3   5   2   7 -0.18431208790561D-13  0.23842219377327D-16
   1   6   2   7 -0.92047612902997D-17 -0.11523418637366D-17
   2   6   2   7 -0.19711768402970D-01  0.11492405872546D-15
   3   6   2   7 -0.36600343709868D-14  0.49580792194913D-17
   1   7   2   7 -0.10297569747675D-13  0.00000000000000D+00
   2   7   2   7  0.74823018438482D+01  0.00000000000000D+00
   3   7   2   7  0.20381144122079D-13  0.00000000000000D+00
   1   8   2   7  0.11763521672291D-13  0.00000000000000D+00
   2   8   2   7 -0.12678616906326D+01  0.00000000000000D+00
   3   8   2   7  0.36899238794066D-17  0.00000000000000D+00
   1  10   2   7  0.00000000000000D+00  0.00000000000000D+00
   3  10   2   7  0.00000000000000D+00  0.00000000000000D+00
   1   1   3   7 -0.62379946300746D-17  0.00000000000000D+00
   2   1   3   7 -0.24796970995032D-16  0.00000000000000D+00
   3   1   3   7  0.54423651894767D+01  0.00000000000000D+00
   1   2   3   7  0.97495861245846D-13 -0.93479734871121D-17
   2   2   3   7 -0.13953414389377D-14  0.11797967828199D-17
   3   2   3   7 -0.72438752409765D+01  0.23682355068668D-14
   1   3   3   7 -0.77199324849260D-13 -0.62892462539091D-16
   2   3   3   7  0.30609210284679D-14 -0.10069899147676D-16
   3   3   3   7 -0.72438752409761D+01  0.30981195726520D-14
   1   4   3   7 -0.18423792879095D-17  0.00000000000000D+00
   2   4   3   7  0.65626497052599D-16  0.00000000000000D+00
   3   4   3   7 -0.60225339333363D+01  0.00000000000000D+00
   1   5   3   7  0.30160490979056D-16 -0.14474856475695D-16
   2   5   3   7 -0.18431208367045D-13  0.23842219377327D-16
   3   5   3   7 -0.44290788569811D+01 -0.22830607793426D-14
   1   6   3   7  0.10630716623076D-17  0.14474831791622D-16
   2   6   3   7 -0.36600339474704D-14  0.49580792194913D-17
   3   6   3   7 -0.44290788569810D+01 -0.44042614838782D-14
   1   7   3   7 -0.20297401770829D-13  0.00000000000000D+00
   2   7   3   7  0.20381144122079D-13  0.00000000000000D+00
   3   7   3   7  0.17410704615738D+02  0.00000000000000D+00
   1   8   3   7 -0.22277814467632D-16  0.00000000000000D+00
   2   8   3   7  0.36899238794066D-17  0.00000000000000D+00
   3   8   3   7  0.61291949611067D+01  0.00000000000000D+00
   1  10   3   7  0.00000000000000D+00  0.00000000000000D+00
   2  10   3   7  0.00000000000000D+00  0.00000000000000D+00
   1   1   1   8 -0.81429261330893D-01  0.00000000000000D+00
   2   1   1   8  0.10070229277420D-17  0.00000000000000D+00
   3   1   1   8  0.59275313578486D-16  0.00000000000000D+00
   1   2   1   8 -0.26064300927303D+00 -0.20394911848543D-15
   2   2   1   8 -0.90131228873068D-15 -0.16803830015992D-17
   3   2   1   8 -0.15646723624985D-14 -0.94749512713087D-16
   1   3   1   8 -0.26064300927300D+00  0.10482567649042D-15
   2   3   1   8 -0.32885353620671D-15  0.16746670857907D-17
   3   3   1   8  0.32300073926020D-14 -0.53913624414653D-16
   1   4   1   8 -0.56155447149137D+01  0.00000000000000D+00
   2   4   1   8  0.14230122574807D-15  0.00000000000000D+00
   3   4   1   8 -0.70566425645594D-16  0.00000000000000D+00
   1   5   1   8 -0.19711768402946D-01  0.12720165317159D-15
   2   5   1   8 -0.35851693212463D-17 -0.98895346259095D-18
   3   5   1   8 -0.19766578442606D-13  0.31228132945736D-16
   1   6   1   8 -0.19711768402968D-01  0.12721206644736D-15
   2   6   1   8 -0.37694197015816D-17  0.98895944103499D-18
   3   6   1   8 -0.43395838414827D-14 -0.16470238762626D-16
   1   7   1   8 -0.12678616906326D+01  0.00000000000000D+00
   2   7   1   8  0.11763521672291D-13  0.00000000000000D+00
   3   7   1   8 -0.22277814467632D-16  0.00000000000000D+00
   1   8   1   8  0.74823018438486D+01  0.00000000000000D+00
   2   8   1   8 -0.10669309507007D-13  0.00000000000000D+00
   3   8   1   8  0.22474396180513D-13  0.00000000000000D+00
   2  10   1   8  0.00000000000000D+00  0.00000000000000D+00
   3  10   1   8  0.00000000000000D+00  0.00000000000000D+00
   1   1   2   8  0.10070229277420D-17  0.00000000000000D+00
   2   1   2   8  0.11918075231334D-01  0.00000000000000D+00
   3   1   2   8 -0.18348848427641D-15  0.00000000000000D+00
   1   2   2   8 -0.90131228873068D-15 -0.16803830015992D-17
   2   2   2   8 -0.54096218525212D+00 -0.34579677579839D-15
   3   2   2   8  0.10207978187475D-12 -0.47146540784258D-16
   1   3   2   8 -0.32885353620671D-15  0.16746670857907D-17
   2   3   2   8 -0.54096218525223D+00  0.18561416334089D-15
   3   3   2   8 -0.75847239084390D-13 -0.27557092742018D-16
   1   4   2   8  0.14230122574807D-15  0.00000000000000D+00
   2   4   2   8 -0.77285032265490D+00  0.00000000000000D+00
   3   4   2   8  0.19849993776031D-15  0.00000000000000D+00
   1   5   2   8 -0.35851693212464D-17 -0.98895346259095D-18
   2   5   2   8 -0.59229118868938D-01  0.42235678252819D-16
   3   5   2   8  0.53172757924741D-16  0.25356271551151D-16
   1   6   2   8 -0.37694197015817D-17  0.98895944103499D-18
   2   6   2   8 -0.59229118868930D-01  0.40210418560521D-16
   3   6   2   8 -0.22158730306663D-16 -0.25583286661066D-16
   1   7   2   8  0.11763521672291D-13  0.00000000000000D+00
   2   7   2   8 -0.12678616906326D+01  0.00000000000000D+00
   3   7   2   8  0.36899238794066D-17  0.00000000000000D+00
   1   8   2   8 -0.10669309507007D-13  0.00000000000000D+00
   2   8   2   8  0.31445377461139D+01  0.00000000000000D+00
   3   8   2   8 -0.26282258195329D-13  0.00000000000000D+00
   1  10   2   8  0.00000000000000D+00  0.00000000000000D+00
   3  10   2   8  0.00000000000000D+00  0.00000000000000D+00
   1   1   3   8  0.59275313578487D-16  0.00000000000000D+00
   2   1   3   8 -0.18348848427641D-15  0.00000000000000D+00
   3   1   3   8  0.54423651894768D+01  0.00000000000000D+00
   1   2   3   8 -0.15646723624985D-14 -0.94749512713087D-16
   2   2   3   8  0.10207978187475D-12 -0.47146540784258D-16
   3   2   3   8 -0.72438752409765D+01  0.24101194272430D-14
   1   3   3   8  0.32300073926020D-14 -0.53913624414653D-16
   2   3   3   8 -0.75847239084390D-13 -0.27557092742018D-16
   3   3   3   8 -0.72438752409761D+01  0.26895608581576D-14
   1   4   3   8 -0.70566425645595D-16  0.00000000000000D+00
   2   4   3   8  0.19849993776031D-15  0.00000000000000D+00
   3   4   3   8 -0.60225339333376D+01  0.00000000000000D+00
   1   5   3   8 -0.19766578019089D-13  0.31228132945736D-16
   2   5   3   8  0.53172757924741D-16  0.25356271551151D-16
   3   5   3   8 -0.44290788569811D+01 -0.22830639944748D-14
   1   6   3   8 -0.43395834179663D-14 -0.16470238762626D-16
   2   6   3   8 -0.22158730306663D-16 -0.25583286661066D-16
   3   6   3   8 -0.44290788569811D+01 -0.43917239300384D-14
   1   7   3   8 -0.22277814467632D-16  0.00000000000000D+00
   2   7   3   8  0.36899238794066D-17  0.00000000000000D+00
   3   7   3   8  0.61291949611067D+01  0.00000000000000D+00
   1   8   3   8  0.22474396180513D-13  0.00000000000000D+00
   2   8   3   8 -0.26282258195329D-13  0.00000000000000D+00
   3   8   3   8  0.17410704615738D+02  0.00000000000000D+00
   1  10   3   8  0.00000000000000D+00  0.00000000000000D+00
   2  10   3   8  0.00000000000000D+00  0.00000000000000D+00
   2   1   1  10  0.00000000000000D+00  0.00000000000000D+00
   3   1   1  10  0.00000000000000D+00  0.00000000000000D+00
   2   2   1  10  0.00000000000000D+00  0.00000000000000D+00
   3   2   1  10  0.00000000000000D+00  0.00000000000000D+00
   2   3   1  10  0.00000000000000D+00  0.00000000000000D+00
   3   3   1  10  0.00000000000000D+00  0.00000000000000D+00
   2   4   1  10  0.00000000000000D+00  0.00000000000000D+00
   3   4   1  10  0.00000000000000D+00  0.00000000000000D+00
   2   5   1  10  0.00000000000000D+00  0.00000000000000D+00
   3   5   1  10  0.00000000000000D+00  0.00000000000000D+00
   2   6   1  10  0.00000000000000D+00  0.00000000000000D+00
   3   6   1  10  0.00000000000000D+00  0.00000000000000D+00
   2   7   1  10  0.00000000000000D+00  0.00000000000000D+00
   3   7   1  10  0.00000000000000D+00  0.00000000000000D+00
   2   8   1  10  0.00000000000000D+00  0.00000000000000D+00
   3   8   1  10  0.00000000000000D+00  0.00000000000000D+00
   2  10   1  10  0.00000000000000D+00  0.00000000000000D+00
   3  10   1  10  0.00000000000000D+00  0.00000000000000D+00
   1   1   2  10  0.00000000000000D+00  0.00000000000000D+00
   3   1   2  10  0.00000000000000D+00  0.00000000000000D+00
   1   2   2  10  0.00000000000000D+00  0.00000000000000D+00
   3   2   2  10  0.00000000000000D+00  0.00000000000000D+00
   1   3   2  10  0.00000000000000D+00  0.00000000000000D+00
   3   3   2  10  0.00000000000000D+00  0.00000000000000D+00
   1   4   2  10  0.00000000000000D+00  0.00000000000000D+00
   3   4   2  10  0.00000000000000D+00  0.00000000000000D+00
   1   5   2  10  0.00000000000000D+00  0.00000000000000D+00
   3   5   2  10  0.00000000000000D+00  0.00000000000000D+00
   1   6   2  10  0.00000000000000D+00  0.00000000000000D+00
   3   6   2  10  0.00000000000000D+00  0.00000000000000D+00
   1   7   2  10  0.00000000000000D+00  0.00000000000000D+00
   3   7   2  10  0.00000000000000D+00  0.00000000000000D+00
   1   8   2  10  0.00000000000000D+00  0.00000000000000D+00
   3   8   2  10  0.00000000000000D+00  0.00000000000000D+00
   1  10   2  10  0.00000000000000D+00  0.00000000000000D+00
   3  10   2  10  0.00000000000000D+00  0.00000000000000D+00
   1   1   3  10  0.00000000000000D+00  0.00000000000000D+00
   2   1   3  10  0.00000000000000D+00  0.00000000000000D+00
   1   2   3  10  0.00000000000000D+00  0.00000000000000D+00
   2   2   3  10  0.00000000000000D+00  0.00000000000000D+00
   1   3   3  10  0.00000000000000D+00  0.00000000000000D+00
   2   3   3  10  0.00000000000000D+00  0.00000000000000D+00
   1   4   3  10  0.00000000000000D+00  0.00000000000000D+00
   2   4   3  10  0.00000000000000D+00  0.00000000000000D+00
   1   5   3  10  0.00000000000000D+00  0.00000000000000D+00
   2   5   3  10  0.00000000000000D+00  0.00000000000000D+00
   1   6   3  10  0.00000000000000D+00  0.00000000000000D+00
   2   6   3  10  0.00000000000000D+00  0.00000000000000D+00
   1   7   3  10  0.00000000000000D+00  0.00000000000000D+00
   2   7   3  10  0.00000000000000D+00  0.00000000000000D+00
   1   8   3  10  0.00000000000000D+00  0.00000000000000D+00
   2   8   3  10  0.00000000000000D+00  0.00000000000000D+00
   1  10   3  10  0.00000000000000D+00  0.00000000000000D+00
   2  10   3  10  0.00000000000000D+00  0.00000000000000D+00
  
 2nd derivatives (non-stat.)  - # elements :     576
 qpt  2.50000000E-01  0.00000000E+00  0.00000000E+00   1.0
   1   1   1   1  0.18009731524342D+01  0.49541611728640D-15
   2   1   1   1  0.22059911338324D-14 -0.80851760738960D-17
   3   1   1   1  0.97570243093119D-15  0.00000000000000D+00
   1   2   1   1 -0.23018509730165D-01 -0.23023846809376D-01
   2   2   1   1  0.22099833978120D-14 -0.17214437812376D-14
   3   2   1   1  0.27691348741676D+00 -0.27690171240032D+00
   1   3   1   1 -0.23018509730186D-01 -0.23023846809362D-01
   2   3   1   1 -0.28492990031740D-15 -0.25598652694250D-14
   3   3   1   1 -0.27691348741673D+00  0.27690171240015D+00
   1   4   1   1 -0.36480496819607D-01  0.34590459249545D-06
[...]
   2   4   3   4 -0.26814496968729D-13  0.00000000000000D+00
   3   4   3   4  0.22671210560045D+02  0.00000000000000D+00
   1   5   3   4  0.92985385509864D-15  0.80691179567623D-15
   2   5   3   4 -0.14850902501894D-14  0.17798600050987D-14
   3   5   3   4  0.30471275815081D+01  0.25521645395397D-04
   1   6   3   4  0.10477289876677D-14 -0.97182103021861D-15
   2   6   3   4 -0.13915939334414D-14 -0.14186814899110D-15
   3   6   3   4  0.30471275815076D+01  0.25521645396524D-04
   1   7   3   4  0.00000000000000D+00  0.50144759986184D-15
   2   7   3   4  0.24922922241561D-13 -0.22128566023565D-14
   3   7   3   4 -0.10547719940937D-11  0.56301764265497D-13
   1   8   3   4  0.24922922238989D-13  0.49210832660631D-14
   2   8   3   4  0.00000000000000D+00  0.47184618435922D-15
   3   8   3   4 -0.10089932008146D-11  0.58455235230744D-13
   1   1   1   5  0.87421232430728D+00  0.72595931055625D-05
   2   1   1   5  0.59793737367720D-15  0.56618230857336D-17
   3   1   1   5  0.25424241956858D-15 -0.75297436685088D-15
   1   2   1   5  0.69473113638969D-15  0.26021290865453D-16
   2   2   1   5  0.46681699162209D-01  0.80463249579815D-05
   3   2   1   5 -0.53179926391352D-13  0.40042695365665D-14
   1   3   1   5  0.55920550569806D-14  0.19776615492080D-15
   2   3   1   5  0.33728955243645D-01 -0.25103464116232D-05
   3   3   1   5 -0.28453784436232D-14 -0.16661246721887D-15
   1   4   1   5 -0.14243132612648D-01  0.37004268782297D-06
   2   4   1   5  0.73147237425203D-17 -0.36580891689861D-15
   3   4   1   5  0.92985385509864D-15 -0.80691179567623D-15
   1   5   1   5  0.13429558516577D+01  0.00000000000000D+00
   2   5   1   5 -0.83416897803616D-14  0.00000000000000D+00
   3   5   1   5  0.57071592965614D-13  0.00000000000000D+00
   1   6   1   5 -0.39946353174127D+00 -0.28039220647004D-06
   2   6   1   5  0.41274478011696D-16 -0.17642435856441D-15
   3   6   1   5 -0.10530156860609D-15  0.23306949789078D-15
   1   7   1   5 -0.20216450754032D-14  0.23737474885327D-15
   2   7   1   5 -0.29564454528731D-15  0.27873921834596D-16
   3   7   1   5 -0.38715259329998D-15 -0.92227472795338D-16
   1   8   1   5  0.11812711789976D-14 -0.15143551086483D-15
   2   8   1   5  0.37012253572262D-15 -0.18174880718067D-15
   3   8   1   5 -0.22715673167738D+00  0.33425328755112D-05
   1   1   2   5  0.59793737367720D-15  0.56617172066152D-17
   2   1   2   5  0.87421232430727D+00  0.72595931062355D-05
   3   1   2   5  0.21056625712788D-14 -0.64271403631334D-15
   1   2   2   5  0.46681699162209D-01  0.80463249579815D-05
   2   2   2   5  0.19959359193929D-14  0.60602061596648D-16
   3   2   2   5 -0.51791471732473D-13  0.42060051317192D-14
   1   3   2   5  0.33728955243645D-01 -0.25103464116232D-05
   2   3   2   5  0.55704936189231D-14 -0.39610421862418D-15
   3   3   2   5 -0.27180397412040D-14  0.24550411861378D-15
   1   4   2   5  0.73147237425203D-17 -0.36580891689861D-15
   2   4   2   5 -0.14243132612670D-01  0.37004269308977D-06
   3   4   2   5 -0.14850902501894D-14 -0.17798600050987D-14
   1   5   2   5 -0.83416897803616D-14  0.00000000000000D+00
   2   5   2   5  0.13429558516577D+01  0.00000000000000D+00
   3   5   2   5  0.52863437342842D-13  0.00000000000000D+00
   1   6   2   5  0.41274478011696D-16 -0.17642435856441D-15
   2   6   2   5 -0.39946353174127D+00 -0.28039220615679D-06
   3   6   2   5 -0.65349600580718D-16 -0.17251078349392D-15
   1   7   2   5 -0.29564454528731D-15  0.27873921834596D-16
   2   7   2   5  0.16359438869443D-18 -0.18190429352513D-15
   3   7   2   5 -0.22715673167739D+00  0.33425328761185D-05
   1   8   2   5  0.37012254895751D-15 -0.18174880718067D-15
   2   8   2   5 -0.30383953037004D-14  0.44407897233336D-16
   3   8   2   5  0.66694648403530D-16  0.58356220474648D-16
   1   1   3   5  0.25424326660153D-15 -0.75297436685088D-15
   2   1   3   5  0.21056634183118D-14 -0.64271393043422D-15
   3   1   3   5  0.59691955408291D+02 -0.14615562605887D-03
   1   2   3   5 -0.53179927661902D-13  0.40042716541489D-14
   2   2   3   5 -0.51791473003022D-13  0.42060076728181D-14
   3   2   3   5 -0.36791028435726D-13 -0.43903937176795D-15
   1   3   3   5 -0.28453782848045D-14 -0.16661246721887D-15
   2   3   3   5 -0.27180396088551D-14  0.24550414508356D-15
   3   3   3   5  0.16750645950372D-13 -0.64919615325635D-15
   1   4   3   5  0.92985385509864D-15 -0.80691179567623D-15
   2   4   3   5 -0.14850902501894D-14 -0.17798600580382D-14
   3   4   3   5  0.30468783685641D+01 -0.24724357085703D-04
   1   5   3   5  0.57071594659680D-13  0.00000000000000D+00
   2   5   3   5  0.52863439036908D-13  0.00000000000000D+00
   3   5   3   5  0.60798831849175D+02  0.00000000000000D+00
   1   6   3   5 -0.10530008629843D-15  0.23306949789078D-15
   2   6   3   5 -0.65348118273060D-16 -0.17251078349392D-15
   3   6   3   5  0.10835744253400D+01  0.24769482529362D-14
   1   7   3   5 -0.38715254036042D-15 -0.92227419855779D-16
   2   7   3   5  0.85361310112533D+00 -0.14260185042069D-05
   3   7   3   5  0.81660420072933D-13 -0.25783759003512D-14
   1   8   3   5  0.85361310112531D+00 -0.14260185048142D-05
   2   8   3   5  0.66694807222208D-16  0.58356273414207D-16
   3   8   3   5  0.82861874937797D-13 -0.30327598616559D-14
   1   1   1   6 -0.87421232430749D+00 -0.72595931114526D-05
   2   1   1   6 -0.60965068468268D-15  0.81119793814219D-17
   3   1   1   6 -0.74496299495654D-15 -0.74636933057672D-15
   1   2   1   6 -0.91263629390380D-15 -0.18894876413043D-15
   2   2   1   6  0.33728955243638D-01 -0.25103464101521D-05
   3   2   1   6  0.19689894549943D-14  0.32839600578691D-15
   1   3   1   6  0.69473113027690D-15  0.86136292873330D-18
   2   3   1   6  0.46681699162292D-01  0.80463249608489D-05
   3   3   1   6  0.59841266209811D-13 -0.38552893391392D-14
   1   4   1   6 -0.14243132612542D-01  0.37004269108325D-06
   2   4   1   6  0.13494650186309D-16  0.38672248134223D-15
   3   4   1   6  0.10477289876677D-14  0.97182103021861D-15
   1   5   1   6 -0.39946353174127D+00 -0.28039220757148D-06
   2   5   1   6  0.41274478011696D-16  0.17642435856441D-15
   3   5   1   6 -0.10530008629843D-15 -0.23306949789078D-15
   1   6   1   6  0.13429558516580D+01  0.00000000000000D+00
   2   6   1   6 -0.83665614548746D-14  0.00000000000000D+00
   3   6   1   6 -0.33310479994945D-13  0.00000000000000D+00
   1   7   1   6  0.13264992653001D-15  0.52631477137081D-17
   2   7   1   6  0.28982445576139D-15  0.29502389757468D-16
   3   7   1   6  0.23103552824591D-15 -0.88905119709800D-16
   1   8   1   6 -0.79597631813515D-15 -0.76227196295364D-16
   2   8   1   6  0.57675391280458D-16 -0.73352561042553D-16
   3   8   1   6  0.22715673167733D+00 -0.33425328761972D-05
   1   1   2   6 -0.60965068468268D-15  0.81120852605403D-17
   2   1   2   6 -0.87421232430748D+00 -0.72595931107763D-05
   3   1   2   6  0.11337485205608D-14 -0.14577940199492D-14
   1   2   2   6  0.33728955243638D-01 -0.25103464101521D-05
   2   2   2   6 -0.95746275810180D-15  0.40494110786445D-15
   3   2   2   6  0.19235985418528D-14 -0.89035986315273D-16
   1   3   2   6  0.46681699162294D-01  0.80463249608489D-05
   2   3   2   6  0.19959359133396D-14 -0.44121776633364D-16
   3   3   2   6  0.55122142532332D-13 -0.43158100124537D-14
   1   4   2   6  0.13494650186309D-16  0.38672248134223D-15
   2   4   2   6 -0.14243132612542D-01  0.37004269073510D-06
   3   4   2   6 -0.13915939334414D-14  0.14186814899110D-15
   1   5   2   6  0.41274478011696D-16  0.17642435856441D-15
   2   5   2   6 -0.39946353174127D+00 -0.28039220788472D-06
   3   5   2   6 -0.65348118273060D-16  0.17251078349392D-15
   1   6   2   6 -0.83665614548746D-14  0.00000000000000D+00
   2   6   2   6  0.13429558516580D+01  0.00000000000000D+00
   3   6   2   6 -0.33610763091002D-13  0.00000000000000D+00
   1   7   2   6  0.28982445576139D-15  0.29502495636586D-16
   2   7   2   6 -0.71930153753407D-15 -0.41247798930101D-15
   3   7   2   6  0.22715673167733D+00 -0.33425328766253D-05
   1   8   2   6  0.57675378045568D-16 -0.73352666921671D-16
   2   8   2   6  0.10832263457853D-14  0.12463402684742D-16
   3   8   2   6 -0.50401473604629D-15  0.55066774029884D-16
   1   1   3   6 -0.74496299495654D-15 -0.74636933057672D-15
   2   1   3   6  0.11337485205608D-14 -0.14577940199492D-14
   3   1   3   6 -0.59691955408288D+02  0.14615562617200D-03
   1   2   3   6  0.19689895344036D-14  0.32839600578691D-15
   2   2   3   6  0.19235985881750D-14 -0.89036065724612D-16
   3   2   3   6 -0.11779817192329D-13 -0.14407146463226D-15
   1   3   3   6  0.59841264939262D-13 -0.38552918802380D-14
   2   3   3   6  0.55122141261783D-13 -0.43158087419043D-14
   3   3   3   6 -0.31795025446917D-13  0.53940492490371D-15
   1   4   3   6  0.10477289876677D-14  0.97182103021861D-15
   2   4   3   6 -0.13915939334414D-14  0.14186809605154D-15
   3   4   3   6  0.30468783685636D+01 -0.24724357086830D-04
   1   5   3   6 -0.10530156860609D-15 -0.23306949789078D-15
   2   5   3   6 -0.65349600580717D-16  0.17251078349392D-15
   3   5   3   6  0.10835744253400D+01 -0.24769482529362D-14
   1   6   3   6 -0.33310478300880D-13  0.00000000000000D+00
   2   6   3   6 -0.33610761396936D-13  0.00000000000000D+00
   3   6   3   6  0.60798831849175D+02  0.00000000000000D+00
   1   7   3   6  0.23103547530635D-15 -0.88905172649359D-16
   2   7   3   6 -0.85361310112539D+00  0.14260185037001D-05
   3   7   3   6  0.17769628862848D-13 -0.32760770256654D-14
   1   8   3   6 -0.85361310112536D+00  0.14260185041282D-05
   2   8   3   6 -0.50401484192541D-15  0.55066721090325D-16
   3   8   3   6  0.15229133505356D-13 -0.29670859761720D-14
   1   1   1   7 -0.24577521773643D-15  0.00000000000000D+00
   2   1   1   7 -0.57502545643314D-15  0.00000000000000D+00
   3   1   1   7 -0.52502937376877D-15  0.00000000000000D+00
   1   2   1   7  0.19372141580684D-14 -0.20274782603927D-14
   2   2   1   7 -0.64733689179856D-14 -0.39800681495952D-15
   3   2   1   7 -0.12896377064630D+01  0.99727338637726D-05
   1   3   1   7  0.19632325704158D-14 -0.19331593012067D-14
   2   3   1   7 -0.52243680213972D-14  0.11174061185833D-14
   3   3   1   7  0.12896377064633D+01 -0.99727338640223D-05
   1   4   1   7 -0.19837698127924D-12 -0.10457922075140D-13
   2   4   1   7 -0.43535626866539D-16 -0.17565400281987D-15
   3   4   1   7  0.00000000000000D+00 -0.50144759986184D-15
   1   5   1   7 -0.20216450754032D-14 -0.23737474885327D-15
   2   5   1   7 -0.29564454528731D-15 -0.27873921834596D-16
   3   5   1   7 -0.38715254036042D-15  0.92227419855779D-16
   1   6   1   7  0.13264992653001D-15 -0.52631427506244D-17
   2   6   1   7  0.28982445576139D-15 -0.29502495636586D-16
   3   6   1   7  0.23103547530635D-15  0.88905172649359D-16
   1   7   1   7  0.25968364162741D+01  0.00000000000000D+00
   2   7   1   7 -0.99697668962791D-14  0.00000000000000D+00
   3   7   1   7 -0.20552410878468D-13  0.00000000000000D+00
   1   8   1   7 -0.58935197135710D-14  0.00000000000000D+00
   2   8   1   7  0.20024228745509D+01  0.00000000000000D+00
   3   8   1   7  0.75785157254605D-15  0.00000000000000D+00
   1   1   2   7 -0.57502542996336D-15  0.00000000000000D+00
   2   1   2   7  0.11525528010115D-14  0.00000000000000D+00
   3   1   2   7  0.33878966383532D+00 -0.60278979985320D-05
   1   2   2   7 -0.64733689179856D-14 -0.39800713259687D-15
   2   2   2   7 -0.25163770077371D-13  0.93030808846802D-15
   3   2   2   7  0.28615914586966D-14  0.23151175666013D-15
   1   3   2   7 -0.52243680213972D-14  0.11174065420998D-14
   2   3   2   7 -0.14651343251039D-13  0.11105611426097D-14
   3   3   2   7  0.69220203282886D-14 -0.72062996082119D-16
   1   4   2   7 -0.43535626866539D-16 -0.17565400281987D-15
   2   4   2   7  0.32390193302077D-12  0.29459263955156D-13
   3   4   2   7  0.24922922241561D-13  0.22128566023565D-14
   1   5   2   7 -0.29564454528731D-15 -0.27874027713714D-16
   2   5   2   7  0.16359438869443D-18  0.18190429352513D-15
   3   5   2   7  0.85362018955594D+00 -0.14742406626350D-05
   1   6   2   7  0.28982445576139D-15 -0.29502389757468D-16
   2   6   2   7 -0.71930153753407D-15  0.41247798930101D-15
   3   6   2   7 -0.85362018955599D+00  0.14742406631417D-05
   1   7   2   7 -0.99697668962791D-14  0.00000000000000D+00
   2   7   2   7  0.54794579710091D+01  0.00000000000000D+00
   3   7   2   7  0.18783819788599D-13  0.00000000000000D+00
   1   8   2   7  0.10918495980838D+01  0.00000000000000D+00
   2   8   2   7 -0.58548109298867D-14  0.00000000000000D+00
   3   8   2   7 -0.26513782299361D-15  0.00000000000000D+00
   1   1   3   7 -0.52502941347344D-15  0.00000000000000D+00
   2   1   3   7 -0.21790497204483D+00  0.24305889310732D-05
   3   1   3   7 -0.44743118471207D-15  0.00000000000000D+00
   1   2   3   7 -0.93495329609449D+00  0.45557658750927D-04
   2   2   3   7  0.28615914586966D-14  0.23151175666013D-15
   3   2   3   7  0.16789487604269D-12 -0.10492200897383D-13
   1   3   3   7  0.93495329609475D+00 -0.45557658751176D-04
   2   3   3   7  0.69220203282886D-14 -0.72063419598592D-16
   3   3   3   7  0.16836285939956D-12 -0.10439590687441D-13
   1   4   3   7  0.00000000000000D+00 -0.50144759986184D-15
   2   4   3   7  0.24922922241561D-13  0.22128566023565D-14
   3   4   3   7 -0.10547719907056D-11 -0.56301760877365D-13
   1   5   3   7 -0.38715248742086D-15  0.92227366916219D-16
   2   5   3   7 -0.22715673167739D+00 -0.33425328761185D-05
   3   5   3   7  0.81660420072933D-13  0.25783759003512D-14
   1   6   3   7  0.23103542236679D-15  0.88905225588919D-16
   2   6   3   7  0.22715673167733D+00  0.33425328766253D-05
   3   6   3   7  0.17769628862848D-13  0.32760770256654D-14
   1   7   3   7 -0.20552410878468D-13  0.00000000000000D+00
   2   7   3   7  0.18783819788599D-13  0.00000000000000D+00
   3   7   3   7  0.14105901286714D+02  0.00000000000000D+00
   1   8   3   7  0.75785030199663D-15  0.00000000000000D+00
   2   8   3   7 -0.26513655244419D-15  0.00000000000000D+00
   3   8   3   7  0.19069974047068D-13  0.00000000000000D+00
   1   1   1   8 -0.56630005414045D-15  0.00000000000000D+00
   2   1   1   8  0.86259551166524D-15  0.00000000000000D+00
   3   1   1   8  0.33878966383533D+00 -0.60278979985320D-05
   1   2   1   8 -0.26054407576461D-13  0.84663636032632D-15
   2   2   1   8 -0.59757676138456D-14  0.38232430501907D-15
   3   2   1   8  0.30074785722786D-14 -0.68189266190103D-16
   1   3   1   8 -0.13767887063900D-13  0.29379608519813D-15
   2   3   1   8 -0.57155590883365D-14 -0.17263962292644D-15
   3   3   1   8  0.67763365151582D-14  0.31987459981221D-15
   1   4   1   8  0.36187901580579D-12  0.30858468539191D-13
   2   4   1   8  0.17530004272083D-15 -0.21395177745334D-14
   3   4   1   8  0.24922922238989D-13 -0.49210832660631D-14
   1   5   1   8  0.11812711789976D-14  0.15143551086483D-15
   2   5   1   8  0.37012254895751D-15  0.18174870130155D-15
   3   5   1   8  0.85362018955591D+00 -0.14742406620276D-05
   1   6   1   8 -0.79597631813515D-15  0.76227196295364D-16
   2   6   1   8  0.57675378045568D-16  0.73352666921671D-16
   3   6   1   8 -0.85362018955596D+00  0.14742406627137D-05
   1   7   1   8 -0.58935197135710D-14  0.00000000000000D+00
   2   7   1   8  0.10918495980838D+01  0.00000000000000D+00
   3   7   1   8  0.75785030199663D-15  0.00000000000000D+00
   1   8   1   8  0.54794579710093D+01  0.00000000000000D+00
   2   8   1   8 -0.10341506655611D-13  0.00000000000000D+00
   3   8   1   8  0.22219387072899D-13  0.00000000000000D+00
   1   1   2   8  0.86259553813502D-15  0.00000000000000D+00
   2   1   2   8 -0.31781898091470D-15  0.00000000000000D+00
   3   1   2   8 -0.50302030497225D-15  0.00000000000000D+00
   1   2   2   8 -0.59757676667852D-14  0.38232456971686D-15
   2   2   2   8 -0.12602801865973D-15 -0.10862260317960D-14
   3   2   2   8 -0.12896377064630D+01  0.99727338654404D-05
   1   3   2   8 -0.57155590353970D-14 -0.17263999350336D-15
   2   3   2   8  0.30159873126561D-14 -0.17254294415725D-14
   3   3   2   8  0.12896377064632D+01 -0.99727338658137D-05
   1   4   2   8  0.17530004272083D-15 -0.21395177745334D-14
   2   4   2   8 -0.18928996483747D-12 -0.10642216206885D-13
   3   4   2   8  0.00000000000000D+00 -0.47184618435922D-15
   1   5   2   8  0.37012253572262D-15  0.18174880718067D-15
   2   5   2   8 -0.30383953037004D-14 -0.44407897233336D-16
   3   5   2   8  0.66694701343089D-16 -0.58356273414207D-16
   1   6   2   8  0.57675391280458D-16  0.73352561042553D-16
   2   6   2   8  0.10832263457853D-14 -0.12463397721659D-16
   3   6   2   8 -0.50401478898585D-15 -0.55066721090325D-16
   1   7   2   8  0.20024228745509D+01  0.00000000000000D+00
   2   7   2   8 -0.58548109298867D-14  0.00000000000000D+00
   3   7   2   8 -0.26513655244419D-15  0.00000000000000D+00
   1   8   2   8 -0.10341506655611D-13  0.00000000000000D+00
   2   8   2   8  0.25968364162741D+01  0.00000000000000D+00
   3   8   2   8 -0.27879582528829D-13  0.00000000000000D+00
   1   1   3   8 -0.21790497204483D+00  0.24305889310732D-05
   2   1   3   8 -0.50302035791181D-15  0.00000000000000D+00
   3   1   3   8  0.64639831757011D-15  0.00000000000000D+00
   1   2   3   8  0.30074785722786D-14 -0.68189213250544D-16
   2   2   3   8 -0.93495329609449D+00  0.45557658752594D-04
   3   2   3   8  0.16974338770124D-12 -0.11488843214328D-13
   1   3   3   8  0.67763365151582D-14  0.31987454687266D-15
   2   3   3   8  0.93495329609471D+00 -0.45557658752968D-04
   3   3   3   8  0.17042199284098D-12 -0.11091120010109D-13
   1   4   3   8  0.24922922238989D-13 -0.49210832660631D-14
   2   4   3   8  0.00000000000000D+00 -0.47184618435922D-15
   3   4   3   8 -0.10089931974265D-11 -0.58455231815910D-13
   1   5   3   8 -0.22715673167738D+00 -0.33425328755112D-05
   2   5   3   8  0.66694754282649D-16 -0.58356326353766D-16
   3   5   3   8  0.82861874937797D-13  0.30327598054077D-14
   1   6   3   8  0.22715673167733D+00  0.33425328761972D-05
   2   6   3   8 -0.50401484192541D-15 -0.55066668150766D-16
   3   6   3   8  0.15229133505356D-13  0.29670859265412D-14
   1   7   3   8  0.75785157254605D-15  0.00000000000000D+00
   2   7   3   8 -0.26513782299361D-15  0.00000000000000D+00
   3   7   3   8  0.19069974047068D-13  0.00000000000000D+00
   1   8   3   8  0.22219387072899D-13  0.00000000000000D+00
   2   8   3   8 -0.27879582528829D-13  0.00000000000000D+00
   3   8   3   8  0.14105901286716D+02  0.00000000000000D+00

 List of bloks and their characteristics 
  
 Total energy                 - # elements :       1
  
 1st derivatives              - # elements :      30
  
 2nd derivatives (non-stat.)  - # elements :     678
 qpt  0.00000000E+00  0.00000000E+00  0.00000000E+00   1.0
  
 2nd derivatives (non-stat.)  - # elements :     576
 qpt  2.50000000E-01  0.00000000E+00  0.00000000E+00   1.0
  
 2nd derivatives (non-stat.)  - # elements :     576
 qpt  5.00000000E-01  0.00000000E+00  0.00000000E+00   1.0
  
 2nd derivatives (non-stat.)  - # elements :     576
 qpt  2.50000000E-01  2.50000000E-01  0.00000000E+00   1.0
  
 2nd derivatives (non-stat.)  - # elements :     576
 qpt  5.00000000E-01  2.50000000E-01  0.00000000E+00   1.0
  
 2nd derivatives (non-stat.)  - # elements :     576
 qpt  5.00000000E-01  5.00000000E-01  0.00000000E+00   1.0
  
 2nd derivatives (non-stat.)  - # elements :     576
 qpt  0.00000000E+00  0.00000000E+00  5.00000000E-01   1.0
  
 2nd derivatives (non-stat.)  - # elements :     576
 qpt  2.50000000E-01  0.00000000E+00  5.00000000E-01   1.0
  
 2nd derivatives (non-stat.)  - # elements :     576
 qpt  5.00000000E-01  0.00000000E+00  5.00000000E-01   1.0
  
 2nd derivatives (non-stat.)  - # elements :     576
 qpt  2.50000000E-01  2.50000000E-01  5.00000000E-01   1.0
  
 2nd derivatives (non-stat.)  - # elements :     576
 qpt  5.00000000E-01  2.50000000E-01  5.00000000E-01   1.0
  
 2nd derivatives (non-stat.)  - # elements :     576
 qpt  5.00000000E-01  5.00000000E-01  5.00000000E-01   1.0
