
 **** DERIVATIVE DATABASE ****    
+DDB, Version number    100401

 phonons on 4 4 4 mesh

    usepaw         1
     natom         2
      nkpt      8000
    nsppol         1
      nsym        48
    ntypat         2
    occopt         7
     nband         9
     acell  0.37794522657713D+01  0.37794522657713D+01  0.37794522657713D+01
       amu  0.69410000000000D+01  0.10079400000000D+01
   dilatmx  0.10000000000000D+01
      ecut  0.23887061508676D+02
 pawecutdg  0.44099190477555D+02
    ecutsm  0.00000000000000D+00
     intxc         0
      iscf         7
       ixc     -1012
       kpt  0.00000000000000D+00  0.00000000000000D+00  0.00000000000000D+00
            0.50000000000000D-01  0.00000000000000D+00  0.00000000000000D+00
            0.10000000000000D+00  0.00000000000000D+00  0.00000000000000D+00
            0.15000000000000D+00  0.00000000000000D+00  0.00000000000000D+00
            0.20000000000000D+00  0.00000000000000D+00  0.00000000000000D+00
            0.25000000000000D+00  0.00000000000000D+00  0.00000000000000D+00
            0.30000000000000D+00  0.00000000000000D+00  0.00000000000000D+00
            0.35000000000000D+00  0.00000000000000D+00  0.00000000000000D+00
            0.40000000000000D+00  0.00000000000000D+00  0.00000000000000D+00
            0.45000000000000D+00  0.00000000000000D+00  0.00000000000000D+00
            0.50000000000000D+00  0.00000000000000D+00  0.00000000000000D+00
           -0.45000000000000D+00  0.00000000000000D+00  0.00000000000000D+00
           -0.40000000000000D+00  0.00000000000000D+00  0.00000000000000D+00
           -0.35000000000000D+00  0.00000000000000D+00  0.00000000000000D+00
           -0.30000000000000D+00  0.00000000000000D+00  0.00000000000000D+00
           -0.25000000000000D+00  0.00000000000000D+00  0.00000000000000D+00
           -0.20000000000000D+00  0.00000000000000D+00  0.00000000000000D+00
           -0.15000000000000D+00  0.00000000000000D+00  0.00000000000000D+00
           -0.10000000000000D+00  0.00000000000000D+00  0.00000000000000D+00
           -0.50000000000000D-01  0.00000000000000D+00  0.00000000000000D+00
            0.00000000000000D+00  0.50000000000000D-01  0.00000000000000D+00
            0.50000000000000D-01  0.50000000000000D-01  0.00000000000000D+00
            0.10000000000000D+00  0.50000000000000D-01  0.00000000000000D+00
            0.15000000000000D+00  0.50000000000000D-01  0.00000000000000D+00
            0.20000000000000D+00  0.50000000000000D-01  0.00000000000000D+00
            0.25000000000000D+00  0.50000000000000D-01  0.00000000000000D+00
            0.30000000000000D+00  0.50000000000000D-01  0.00000000000000D+00
            0.35000000000000D+00  0.50000000000000D-01  0.00000000000000D+00
            0.40000000000000D+00  0.50000000000000D-01  0.00000000000000D+00
            0.45000000000000D+00  0.50000000000000D-01  0.00000000000000D+00
            0.50000000000000D+00  0.50000000000000D-01  0.00000000000000D+00
           -0.45000000000000D+00  0.50000000000000D-01  0.00000000000000D+00
           -0.40000000000000D+00  0.50000000000000D-01  0.00000000000000D+00
           -0.35000000000000D+00  0.50000000000000D-01  0.00000000000000D+00
           -0.30000000000000D+00  0.50000000000000D-01  0.00000000000000D+00
           -0.25000000000000D+00  0.50000000000000D-01  0.00000000000000D+00
           -0.20000000000000D+00  0.50000000000000D-01  0.00000000000000D+00
           -0.15000000000000D+00  0.50000000000000D-01  0.00000000000000D+00
           -0.10000000000000D+00  0.50000000000000D-01  0.00000000000000D+00
           -0.50000000000000D-01  0.50000000000000D-01  0.00000000000000D+00
            0.00000000000000D+00  0.10000000000000D+00  0.00000000000000D+00
            0.50000000000000D-01  0.10000000000000D+00  0.00000000000000D+00
            0.10000000000000D+00  0.10000000000000D+00  0.00000000000000D+00
            0.15000000000000D+00  0.10000000000000D+00  0.00000000000000D+00
            0.20000000000000D+00  0.10000000000000D+00  0.00000000000000D+00
            0.25000000000000D+00  0.10000000000000D+00  0.00000000000000D+00
            0.30000000000000D+00  0.10000000000000D+00  0.00000000000000D+00
            0.35000000000000D+00  0.10000000000000D+00  0.00000000000000D+00
            0.40000000000000D+00  0.10000000000000D+00  0.00000000000000D+00
            0.45000000000000D+00  0.10000000000000D+00  0.00000000000000D+00
            0.50000000000000D+00  0.10000000000000D+00  0.00000000000000D+00
           -0.45000000000000D+00  0.10000000000000D+00  0.00000000000000D+00
           -0.40000000000000D+00  0.10000000000000D+00  0.00000000000000D+00
           -0.35000000000000D+00  0.10000000000000D+00  0.00000000000000D+00
           -0.30000000000000D+00  0.10000000000000D+00  0.00000000000000D+00
           -0.25000000000000D+00  0.10000000000000D+00  0.00000000000000D+00
           -0.20000000000000D+00  0.10000000000000D+00  0.00000000000000D+00
           -0.15000000000000D+00  0.10000000000000D+00  0.00000000000000D+00
           -0.10000000000000D+00  0.10000000000000D+00  0.00000000000000D+00
           -0.50000000000000D-01  0.10000000000000D+00  0.00000000000000D+00
            0.00000000000000D+00  0.15000000000000D+00  0.00000000000000D+00
            0.50000000000000D-01  0.15000000000000D+00  0.00000000000000D+00
            0.10000000000000D+00  0.15000000000000D+00  0.00000000000000D+00
            0.15000000000000D+00  0.15000000000000D+00  0.00000000000000D+00
            0.20000000000000D+00  0.15000000000000D+00  0.00000000000000D+00
            0.25000000000000D+00  0.15000000000000D+00  0.00000000000000D+00
            0.30000000000000D+00  0.15000000000000D+00  0.00000000000000D+00
            0.35000000000000D+00  0.15000000000000D+00  0.00000000000000D+00
            0.40000000000000D+00  0.15000000000000D+00  0.00000000000000D+00
            0.45000000000000D+00  0.15000000000000D+00  0.00000000000000D+00
            0.50000000000000D+00  0.15000000000000D+00  0.00000000000000D+00
           -0.45000000000000D+00  0.15000000000000D+00  0.00000000000000D+00
           -0.40000000000000D+00  0.15000000000000D+00  0.00000000000000D+00
           -0.35000000000000D+00  0.15000000000000D+00  0.00000000000000D+00
           -0.30000000000000D+00  0.15000000000000D+00  0.00000000000000D+00
           -0.25000000000000D+00  0.15000000000000D+00  0.00000000000000D+00
           -0.20000000000000D+00  0.15000000000000D+00  0.00000000000000D+00
           -0.15000000000000D+00  0.15000000000000D+00  0.00000000000000D+00
           -0.10000000000000D+00  0.15000000000000D+00  0.00000000000000D+00
           -0.50000000000000D-01  0.15000000000000D+00  0.00000000000000D+00
            0.00000000000000D+00  0.20000000000000D+00  0.00000000000000D+00
            0.50000000000000D-01  0.20000000000000D+00  0.00000000000000D+00
            0.10000000000000D+00  0.20000000000000D+00  0.00000000000000D+00
            0.15000000000000D+00  0.20000000000000D+00  0.00000000000000D+00
            0.20000000000000D+00  0.20000000000000D+00  0.00000000000000D+00
            0.25000000000000D+00  0.20000000000000D+00  0.00000000000000D+00
            0.30000000000000D+00  0.20000000000000D+00  0.00000000000000D+00
            0.35000000000000D+00  0.20000000000000D+00  0.00000000000000D+00
            0.40000000000000D+00  0.20000000000000D+00  0.00000000000000D+00
            0.45000000000000D+00  0.20000000000000D+00  0.00000000000000D+00
            0.50000000000000D+00  0.20000000000000D+00  0.00000000000000D+00
           -0.45000000000000D+00  0.20000000000000D+00  0.00000000000000D+00
           -0.40000000000000D+00  0.20000000000000D+00  0.00000000000000D+00
           -0.35000000000000D+00  0.20000000000000D+00  0.00000000000000D+00
           -0.30000000000000D+00  0.20000000000000D+00  0.00000000000000D+00
           -0.25000000000000D+00  0.20000000000000D+00  0.00000000000000D+00
           -0.20000000000000D+00  0.20000000000000D+00  0.00000000000000D+00
           -0.15000000000000D+00  0.20000000000000D+00  0.00000000000000D+00
           -0.10000000000000D+00  0.20000000000000D+00  0.00000000000000D+00
           -0.50000000000000D-01  0.20000000000000D+00  0.00000000000000D+00
            0.00000000000000D+00  0.25000000000000D+00  0.00000000000000D+00
            0.50000000000000D-01  0.25000000000000D+00  0.00000000000000D+00
            0.10000000000000D+00  0.25000000000000D+00  0.00000000000000D+00
            0.15000000000000D+00  0.25000000000000D+00  0.00000000000000D+00
            0.20000000000000D+00  0.25000000000000D+00  0.00000000000000D+00
            0.25000000000000D+00  0.25000000000000D+00  0.00000000000000D+00
            0.30000000000000D+00  0.25000000000000D+00  0.00000000000000D+00
            0.35000000000000D+00  0.25000000000000D+00  0.00000000000000D+00
            0.40000000000000D+00  0.25000000000000D+00  0.00000000000000D+00
            0.45000000000000D+00  0.25000000000000D+00  0.00000000000000D+00
            0.50000000000000D+00  0.25000000000000D+00  0.00000000000000D+00
           -0.45000000000000D+00  0.25000000000000D+00  0.00000000000000D+00
           -0.40000000000000D+00  0.25000000000000D+00  0.00000000000000D+00
           -0.35000000000000D+00  0.25000000000000D+00  0.00000000000000D+00
           -0.30000000000000D+00  0.25000000000000D+00  0.00000000000000D+00
           -0.25000000000000D+00  0.25000000000000D+00  0.00000000000000D+00
           -0.20000000000000D+00  0.25000000000000D+00  0.00000000000000D+00
           -0.15000000000000D+00  0.25000000000000D+00  0.00000000000000D+00
           -0.10000000000000D+00  0.25000000000000D+00  0.00000000000000D+00
           -0.50000000000000D-01  0.25000000000000D+00  0.00000000000000D+00
            0.00000000000000D+00  0.30000000000000D+00  0.00000000000000D+00
            0.50000000000000D-01  0.30000000000000D+00  0.00000000000000D+00
            0.10000000000000D+00  0.30000000000000D+00  0.00000000000000D+00
            0.15000000000000D+00  0.30000000000000D+00  0.00000000000000D+00
            0.20000000000000D+00  0.30000000000000D+00  0.00000000000000D+00
            0.25000000000000D+00  0.30000000000000D+00  0.00000000000000D+00
            0.30000000000000D+00  0.30000000000000D+00  0.00000000000000D+00
            0.35000000000000D+00  0.30000000000000D+00  0.00000000000000D+00
            0.40000000000000D+00  0.30000000000000D+00  0.00000000000000D+00
            0.45000000000000D+00  0.30000000000000D+00  0.00000000000000D+00
            0.50000000000000D+00  0.30000000000000D+00  0.00000000000000D+00
           -0.45000000000000D+00  0.30000000000000D+00  0.00000000000000D+00
           -0.40000000000000D+00  0.30000000000000D+00  0.00000000000000D+00
           -0.35000000000000D+00  0.30000000000000D+00  0.00000000000000D+00
           -0.30000000000000D+00  0.30000000000000D+00  0.00000000000000D+00
           -0.25000000000000D+00  0.30000000000000D+00  0.00000000000000D+00
           -0.20000000000000D+00  0.30000000000000D+00  0.00000000000000D+00
           -0.15000000000000D+00  0.30000000000000D+00  0.00000000000000D+00
           -0.10000000000000D+00  0.30000000000000D+00  0.00000000000000D+00
           -0.50000000000000D-01  0.30000000000000D+00  0.00000000000000D+00
            0.00000000000000D+00  0.35000000000000D+00  0.00000000000000D+00
            0.50000000000000D-01  0.35000000000000D+00  0.00000000000000D+00
            0.10000000000000D+00  0.35000000000000D+00  0.00000000000000D+00
            0.15000000000000D+00  0.35000000000000D+00  0.00000000000000D+00
            0.20000000000000D+00  0.35000000000000D+00  0.00000000000000D+00
            0.25000000000000D+00  0.35000000000000D+00  0.00000000000000D+00
            0.30000000000000D+00  0.35000000000000D+00  0.00000000000000D+00
            0.35000000000000D+00  0.35000000000000D+00  0.00000000000000D+00
            0.40000000000000D+00  0.35000000000000D+00  0.00000000000000D+00
            0.45000000000000D+00  0.35000000000000D+00  0.00000000000000D+00
            0.50000000000000D+00  0.35000000000000D+00  0.00000000000000D+00
           -0.45000000000000D+00  0.35000000000000D+00  0.00000000000000D+00
           -0.40000000000000D+00  0.35000000000000D+00  0.00000000000000D+00
           -0.35000000000000D+00  0.35000000000000D+00  0.00000000000000D+00
           -0.30000000000000D+00  0.35000000000000D+00  0.00000000000000D+00
           -0.25000000000000D+00  0.35000000000000D+00  0.00000000000000D+00
           -0.20000000000000D+00  0.35000000000000D+00  0.00000000000000D+00
           -0.15000000000000D+00  0.35000000000000D+00  0.00000000000000D+00
           -0.10000000000000D+00  0.35000000000000D+00  0.00000000000000D+00
           -0.50000000000000D-01  0.35000000000000D+00  0.00000000000000D+00
            0.00000000000000D+00  0.40000000000000D+00  0.00000000000000D+00
            0.50000000000000D-01  0.40000000000000D+00  0.00000000000000D+00
            0.10000000000000D+00  0.40000000000000D+00  0.00000000000000D+00
            0.15000000000000D+00  0.40000000000000D+00  0.00000000000000D+00
            0.20000000000000D+00  0.40000000000000D+00  0.00000000000000D+00
            0.25000000000000D+00  0.40000000000000D+00  0.00000000000000D+00
            0.30000000000000D+00  0.40000000000000D+00  0.00000000000000D+00
            0.35000000000000D+00  0.40000000000000D+00  0.00000000000000D+00
            0.40000000000000D+00  0.40000000000000D+00  0.00000000000000D+00
            0.45000000000000D+00  0.40000000000000D+00  0.00000000000000D+00
            0.50000000000000D+00  0.40000000000000D+00  0.00000000000000D+00
           -0.45000000000000D+00  0.40000000000000D+00  0.00000000000000D+00
           -0.40000000000000D+00  0.40000000000000D+00  0.00000000000000D+00
           -0.35000000000000D+00  0.40000000000000D+00  0.00000000000000D+00
           -0.30000000000000D+00  0.40000000000000D+00  0.00000000000000D+00
           -0.25000000000000D+00  0.40000000000000D+00  0.00000000000000D+00
           -0.20000000000000D+00  0.40000000000000D+00  0.00000000000000D+00
           -0.15000000000000D+00  0.40000000000000D+00  0.00000000000000D+00
           -0.10000000000000D+00  0.40000000000000D+00  0.00000000000000D+00
           -0.50000000000000D-01  0.40000000000000D+00  0.00000000000000D+00
            0.00000000000000D+00  0.45000000000000D+00  0.00000000000000D+00
            0.50000000000000D-01  0.45000000000000D+00  0.00000000000000D+00
            0.10000000000000D+00  0.45000000000000D+00  0.00000000000000D+00
            0.15000000000000D+00  0.45000000000000D+00  0.00000000000000D+00
            0.20000000000000D+00  0.45000000000000D+00  0.00000000000000D+00
            0.25000000000000D+00  0.45000000000000D+00  0.00000000000000D+00
            0.30000000000000D+00  0.45000000000000D+00  0.00000000000000D+00
            0.35000000000000D+00  0.45000000000000D+00  0.00000000000000D+00
            0.40000000000000D+00  0.45000000000000D+00  0.00000000000000D+00
            0.45000000000000D+00  0.45000000000000D+00  0.00000000000000D+00
            0.50000000000000D+00  0.45000000000000D+00  0.00000000000000D+00
           -0.45000000000000D+00  0.45000000000000D+00  0.00000000000000D+00
           -0.40000000000000D+00  0.45000000000000D+00  0.00000000000000D+00
           -0.35000000000000D+00  0.45000000000000D+00  0.00000000000000D+00
           -0.30000000000000D+00  0.45000000000000D+00  0.00000000000000D+00
           -0.25000000000000D+00  0.45000000000000D+00  0.00000000000000D+00
           -0.20000000000000D+00  0.45000000000000D+00  0.00000000000000D+00
           -0.15000000000000D+00  0.45000000000000D+00  0.00000000000000D+00
           -0.10000000000000D+00  0.45000000000000D+00  0.00000000000000D+00
           -0.50000000000000D-01  0.45000000000000D+00  0.00000000000000D+00
            0.00000000000000D+00  0.50000000000000D+00  0.00000000000000D+00
            0.50000000000000D-01  0.50000000000000D+00  0.00000000000000D+00
            0.10000000000000D+00  0.50000000000000D+00  0.00000000000000D+00
            0.15000000000000D+00  0.50000000000000D+00  0.00000000000000D+00
            0.20000000000000D+00  0.50000000000000D+00  0.00000000000000D+00
            0.25000000000000D+00  0.50000000000000D+00  0.00000000000000D+00
            0.30000000000000D+00  0.50000000000000D+00  0.00000000000000D+00
            0.35000000000000D+00  0.50000000000000D+00  0.00000000000000D+00
            0.40000000000000D+00  0.50000000000000D+00  0.00000000000000D+00
            0.45000000000000D+00  0.50000000000000D+00  0.00000000000000D+00
            0.50000000000000D+00  0.50000000000000D+00  0.00000000000000D+00
           -0.45000000000000D+00  0.50000000000000D+00  0.00000000000000D+00
           -0.40000000000000D+00  0.50000000000000D+00  0.00000000000000D+00
           -0.35000000000000D+00  0.50000000000000D+00  0.00000000000000D+00
           -0.30000000000000D+00  0.50000000000000D+00  0.00000000000000D+00
           -0.25000000000000D+00  0.50000000000000D+00  0.00000000000000D+00
           -0.20000000000000D+00  0.50000000000000D+00  0.00000000000000D+00
           -0.15000000000000D+00  0.50000000000000D+00  0.00000000000000D+00
           -0.10000000000000D+00  0.50000000000000D+00  0.00000000000000D+00
           -0.50000000000000D-01  0.50000000000000D+00  0.00000000000000D+00
            0.00000000000000D+00 -0.45000000000000D+00  0.00000000000000D+00
            0.50000000000000D-01 -0.45000000000000D+00  0.00000000000000D+00
            0.10000000000000D+00 -0.45000000000000D+00  0.00000000000000D+00
            0.15000000000000D+00 -0.45000000000000D+00  0.00000000000000D+00
            0.20000000000000D+00 -0.45000000000000D+00  0.00000000000000D+00
            0.25000000000000D+00 -0.45000000000000D+00  0.00000000000000D+00
            0.30000000000000D+00 -0.45000000000000D+00  0.00000000000000D+00
            0.35000000000000D+00 -0.45000000000000D+00  0.00000000000000D+00
            0.40000000000000D+00 -0.45000000000000D+00  0.00000000000000D+00
            0.45000000000000D+00 -0.45000000000000D+00  0.00000000000000D+00
            0.50000000000000D+00 -0.45000000000000D+00  0.00000000000000D+00
           -0.45000000000000D+00 -0.45000000000000D+00  0.00000000000000D+00
           -0.40000000000000D+00 -0.45000000000000D+00  0.00000000000000D+00
           -0.35000000000000D+00 -0.45000000000000D+00  0.00000000000000D+00
           -0.30000000000000D+00 -0.45000000000000D+00  0.00000000000000D+00
           -0.25000000000000D+00 -0.45000000000000D+00  0.00000000000000D+00
           -0.20000000000000D+00 -0.45000000000000D+00  0.00000000000000D+00
           -0.15000000000000D+00 -0.45000000000000D+00  0.00000000000000D+00
           -0.10000000000000D+00 -0.45000000000000D+00  0.00000000000000D+00
           -0.50000000000000D-01 -0.45000000000000D+00  0.00000000000000D+00
            0.00000000000000D+00 -0.40000000000000D+00  0.00000000000000D+00
            0.50000000000000D-01 -0.40000000000000D+00  0.00000000000000D+00
            0.10000000000000D+00 -0.40000000000000D+00  0.00000000000000D+00
            0.15000000000000D+00 -0.40000000000000D+00  0.00000000000000D+00
            0.20000000000000D+00 -0.40000000000000D+00  0.00000000000000D+00
            0.25000000000000D+00 -0.40000000000000D+00  0.00000000000000D+00
            0.30000000000000D+00 -0.40000000000000D+00  0.00000000000000D+00
            0.35000000000000D+00 -0.40000000000000D+00  0.00000000000000D+00
            0.40000000000000D+00 -0.40000000000000D+00  0.00000000000000D+00
            0.45000000000000D+00 -0.40000000000000D+00  0.00000000000000D+00
            0.50000000000000D+00 -0.40000000000000D+00  0.00000000000000D+00
           -0.45000000000000D+00 -0.40000000000000D+00  0.00000000000000D+00
           -0.40000000000000D+00 -0.40000000000000D+00  0.00000000000000D+00
           -0.35000000000000D+00 -0.40000000000000D+00  0.00000000000000D+00
           -0.30000000000000D+00 -0.40000000000000D+00  0.00000000000000D+00
           -0.25000000000000D+00 -0.40000000000000D+00  0.00000000000000D+00
           -0.20000000000000D+00 -0.40000000000000D+00  0.00000000000000D+00
           -0.15000000000000D+00 -0.40000000000000D+00  0.00000000000000D+00
           -0.10000000000000D+00 -0.40000000000000D+00  0.00000000000000D+00
           -0.50000000000000D-01 -0.40000000000000D+00  0.00000000000000D+00
            0.00000000000000D+00 -0.35000000000000D+00  0.00000000000000D+00
            0.50000000000000D-01 -0.35000000000000D+00  0.00000000000000D+00
            0.10000000000000D+00 -0.35000000000000D+00  0.00000000000000D+00
            0.15000000000000D+00 -0.35000000000000D+00  0.00000000000000D+00
            0.20000000000000D+00 -0.35000000000000D+00  0.00000000000000D+00
            0.25000000000000D+00 -0.35000000000000D+00  0.00000000000000D+00
            0.30000000000000D+00 -0.35000000000000D+00  0.00000000000000D+00
            0.35000000000000D+00 -0.35000000000000D+00  0.00000000000000D+00
            0.40000000000000D+00 -0.35000000000000D+00  0.00000000000000D+00
            0.45000000000000D+00 -0.35000000000000D+00  0.00000000000000D+00
            0.50000000000000D+00 -0.35000000000000D+00  0.00000000000000D+00
           -0.45000000000000D+00 -0.35000000000000D+00  0.00000000000000D+00
           -0.40000000000000D+00 -0.35000000000000D+00  0.00000000000000D+00
           -0.35000000000000D+00 -0.35000000000000D+00  0.00000000000000D+00
           -0.30000000000000D+00 -0.35000000000000D+00  0.00000000000000D+00
           -0.25000000000000D+00 -0.35000000000000D+00  0.00000000000000D+00
           -0.20000000000000D+00 -0.35000000000000D+00  0.00000000000000D+00
           -0.15000000000000D+00 -0.35000000000000D+00  0.00000000000000D+00
           -0.10000000000000D+00 -0.35000000000000D+00  0.00000000000000D+00
           -0.50000000000000D-01 -0.35000000000000D+00  0.00000000000000D+00
            0.00000000000000D+00 -0.30000000000000D+00  0.00000000000000D+00
            0.50000000000000D-01 -0.30000000000000D+00  0.00000000000000D+00
            0.10000000000000D+00 -0.30000000000000D+00  0.00000000000000D+00
            0.15000000000000D+00 -0.30000000000000D+00  0.00000000000000D+00
            0.20000000000000D+00 -0.30000000000000D+00  0.00000000000000D+00
            0.25000000000000D+00 -0.30000000000000D+00  0.00000000000000D+00
            0.30000000000000D+00 -0.30000000000000D+00  0.00000000000000D+00
            0.35000000000000D+00 -0.30000000000000D+00  0.00000000000000D+00
            0.40000000000000D+00 -0.30000000000000D+00  0.00000000000000D+00
            0.45000000000000D+00 -0.30000000000000D+00  0.00000000000000D+00
            0.50000000000000D+00 -0.30000000000000D+00  0.00000000000000D+00
           -0.45000000000000D+00 -0.30000000000000D+00  0.00000000000000D+00
           -0.40000000000000D+00 -0.30000000000000D+00  0.00000000000000D+00
           -0.35000000000000D+00 -0.30000000000000D+00  0.00000000000000D+00
           -0.30000000000000D+00 -0.30000000000000D+00  0.00000000000000D+00
           -0.25000000000000D+00 -0.30000000000000D+00  0.00000000000000D+00
           -0.20000000000000D+00 -0.30000000000000D+00  0.00000000000000D+00
           -0.15000000000000D+00 -0.30000000000000D+00  0.00000000000000D+00
           -0.10000000000000D+00 -0.30000000000000D+00  0.00000000000000D+00
           -0.50000000000000D-01 -0.30000000000000D+00  0.00000000000000D+00
            0.00000000000000D+00 -0.25000000000000D+00  0.00000000000000D+00
            0.50000000000000D-01 -0.25000000000000D+00  0.00000000000000D+00
            0.10000000000000D+00 -0.25000000000000D+00  0.00000000000000D+00
            0.15000000000000D+00 -0.25000000000000D+00  0.00000000000000D+00
            0.20000000000000D+00 -0.25000000000000D+00  0.00000000000000D+00
            0.25000000000000D+00 -0.25000000000000D+00  0.00000000000000D+00
            0.30000000000000D+00 -0.25000000000000D+00  0.00000000000000D+00
            0.35000000000000D+00 -0.25000000000000D+00  0.00000000000000D+00
            0.40000000000000D+00 -0.25000000000000D+00  0.00000000000000D+00
            0.45000000000000D+00 -0.25000000000000D+00  0.00000000000000D+00
            0.50000000000000D+00 -0.25000000000000D+00  0.00000000000000D+00
           -0.45000000000000D+00 -0.25000000000000D+00  0.00000000000000D+00
           -0.40000000000000D+00 -0.25000000000000D+00  0.00000000000000D+00
           -0.35000000000000D+00 -0.25000000000000D+00  0.00000000000000D+00
           -0.30000000000000D+00 -0.25000000000000D+00  0.00000000000000D+00
           -0.25000000000000D+00 -0.25000000000000D+00  0.00000000000000D+00
           -0.20000000000000D+00 -0.25000000000000D+00  0.00000000000000D+00
           -0.15000000000000D+00 -0.25000000000000D+00  0.00000000000000D+00
           -0.10000000000000D+00 -0.25000000000000D+00  0.00000000000000D+00
           -0.50000000000000D-01 -0.25000000000000D+00  0.00000000000000D+00
            0.00000000000000D+00 -0.20000000000000D+00  0.00000000000000D+00
            0.50000000000000D-01 -0.20000000000000D+00  0.00000000000000D+00
            0.10000000000000D+00 -0.20000000000000D+00  0.00000000000000D+00
            0.15000000000000D+00 -0.20000000000000D+00  0.00000000000000D+00
            0.20000000000000D+00 -0.20000000000000D+00  0.00000000000000D+00
            0.25000000000000D+00 -0.20000000000000D+00  0.00000000000000D+00
            0.30000000000000D+00 -0.20000000000000D+00  0.00000000000000D+00
            0.35000000000000D+00 -0.20000000000000D+00  0.00000000000000D+00
            0.40000000000000D+00 -0.20000000000000D+00  0.00000000000000D+00
            0.45000000000000D+00 -0.20000000000000D+00  0.00000000000000D+00
            0.50000000000000D+00 -0.20000000000000D+00  0.00000000000000D+00
           -0.45000000000000D+00 -0.20000000000000D+00  0.00000000000000D+00
           -0.40000000000000D+00 -0.20000000000000D+00  0.00000000000000D+00
           -0.35000000000000D+00 -0.20000000000000D+00  0.00000000000000D+00
           -0.30000000000000D+00 -0.20000000000000D+00  0.00000000000000D+00
           -0.25000000000000D+00 -0.20000000000000D+00  0.00000000000000D+00
           -0.20000000000000D+00 -0.20000000000000D+00  0.00000000000000D+00
           -0.15000000000000D+00 -0.20000000000000D+00  0.00000000000000D+00
           -0.10000000000000D+00 -0.20000000000000D+00  0.00000000000000D+00
           -0.50000000000000D-01 -0.20000000000000D+00  0.00000000000000D+00
            0.00000000000000D+00 -0.15000000000000D+00  0.00000000000000D+00
            0.50000000000000D-01 -0.15000000000000D+00  0.00000000000000D+00
            0.10000000000000D+00 -0.15000000000000D+00  0.00000000000000D+00
            0.15000000000000D+00 -0.15000000000000D+00  0.00000000000000D+00
            0.20000000000000D+00 -0.15000000000000D+00  0.00000000000000D+00
            0.25000000000000D+00 -0.15000000000000D+00  0.00000000000000D+00
            0.30000000000000D+00 -0.15000000000000D+00  0.00000000000000D+00
            0.35000000000000D+00 -0.15000000000000D+00  0.00000000000000D+00
            0.40000000000000D+00 -0.15000000000000D+00  0.00000000000000D+00
            0.45000000000000D+00 -0.15000000000000D+00  0.00000000000000D+00
            0.50000000000000D+00 -0.15000000000000D+00  0.00000000000000D+00
           -0.45000000000000D+00 -0.15000000000000D+00  0.00000000000000D+00
           -0.40000000000000D+00 -0.15000000000000D+00  0.00000000000000D+00
           -0.35000000000000D+00 -0.15000000000000D+00  0.00000000000000D+00
           -0.30000000000000D+00 -0.15000000000000D+00  0.00000000000000D+00
           -0.25000000000000D+00 -0.15000000000000D+00  0.00000000000000D+00
           -0.20000000000000D+00 -0.15000000000000D+00  0.00000000000000D+00
           -0.15000000000000D+00 -0.15000000000000D+00  0.00000000000000D+00
           -0.10000000000000D+00 -0.15000000000000D+00  0.00000000000000D+00
           -0.50000000000000D-01 -0.15000000000000D+00  0.00000000000000D+00
            0.00000000000000D+00 -0.10000000000000D+00  0.00000000000000D+00
            0.50000000000000D-01 -0.10000000000000D+00  0.00000000000000D+00
            0.10000000000000D+00 -0.10000000000000D+00  0.00000000000000D+00
            0.15000000000000D+00 -0.10000000000000D+00  0.00000000000000D+00
            0.20000000000000D+00 -0.10000000000000D+00  0.00000000000000D+00
            0.25000000000000D+00 -0.10000000000000D+00  0.00000000000000D+00
            0.30000000000000D+00 -0.10000000000000D+00  0.00000000000000D+00
            0.35000000000000D+00 -0.10000000000000D+00  0.00000000000000D+00
            0.40000000000000D+00 -0.10000000000000D+00  0.00000000000000D+00
            0.45000000000000D+00 -0.10000000000000D+00  0.00000000000000D+00
            0.50000000000000D+00 -0.10000000000000D+00  0.00000000000000D+00
           -0.45000000000000D+00 -0.10000000000000D+00  0.00000000000000D+00
           -0.40000000000000D+00 -0.10000000000000D+00  0.00000000000000D+00
           -0.35000000000000D+00 -0.10000000000000D+00  0.00000000000000D+00
           -0.30000000000000D+00 -0.10000000000000D+00  0.00000000000000D+00
           -0.25000000000000D+00 -0.10000000000000D+00  0.00000000000000D+00
           -0.20000000000000D+00 -0.10000000000000D+00  0.00000000000000D+00
           -0.15000000000000D+00 -0.10000000000000D+00  0.00000000000000D+00
           -0.10000000000000D+00 -0.10000000000000D+00  0.00000000000000D+00
           -0.50000000000000D-01 -0.10000000000000D+00  0.00000000000000D+00
            0.00000000000000D+00 -0.50000000000000D-01  0.00000000000000D+00
            0.50000000000000D-01 -0.50000000000000D-01  0.00000000000000D+00
            0.10000000000000D+00 -0.50000000000000D-01  0.00000000000000D+00
            0.15000000000000D+00 -0.50000000000000D-01  0.00000000000000D+00
            0.20000000000000D+00 -0.50000000000000D-01  0.00000000000000D+00
            0.25000000000000D+00 -0.50000000000000D-01  0.00000000000000D+00
            0.30000000000000D+00 -0.50000000000000D-01  0.00000000000000D+00
            0.35000000000000D+00 -0.50000000000000D-01  0.00000000000000D+00
            0.40000000000000D+00 -0.50000000000000D-01  0.00000000000000D+00
            0.45000000000000D+00 -0.50000000000000D-01  0.00000000000000D+00
            0.50000000000000D+00 -0.50000000000000D-01  0.00000000000000D+00
           -0.45000000000000D+00 -0.50000000000000D-01  0.00000000000000D+00
           -0.40000000000000D+00 -0.50000000000000D-01  0.00000000000000D+00
           -0.35000000000000D+00 -0.50000000000000D-01  0.00000000000000D+00
           -0.30000000000000D+00 -0.50000000000000D-01  0.00000000000000D+00
           -0.25000000000000D+00 -0.50000000000000D-01  0.00000000000000D+00
           -0.20000000000000D+00 -0.50000000000000D-01  0.00000000000000D+00
           -0.15000000000000D+00 -0.50000000000000D-01  0.00000000000000D+00
           -0.10000000000000D+00 -0.50000000000000D-01  0.00000000000000D+00
           -0.50000000000000D-01 -0.50000000000000D-01  0.00000000000000D+00
            0.00000000000000D+00  0.00000000000000D+00  0.50000000000000D-01
            0.50000000000000D-01  0.00000000000000D+00  0.50000000000000D-01
            0.10000000000000D+00  0.00000000000000D+00  0.50000000000000D-01
            0.15000000000000D+00  0.00000000000000D+00  0.50000000000000D-01
            0.20000000000000D+00  0.00000000000000D+00  0.50000000000000D-01
            0.25000000000000D+00  0.00000000000000D+00  0.50000000000000D-01
            0.30000000000000D+00  0.00000000000000D+00  0.50000000000000D-01
            0.35000000000000D+00  0.00000000000000D+00  0.50000000000000D-01
            0.40000000000000D+00  0.00000000000000D+00  0.50000000000000D-01
            0.45000000000000D+00  0.00000000000000D+00  0.50000000000000D-01
            0.50000000000000D+00  0.00000000000000D+00  0.50000000000000D-01
           -0.45000000000000D+00  0.00000000000000D+00  0.50000000000000D-01
           -0.40000000000000D+00  0.00000000000000D+00  0.50000000000000D-01
           -0.35000000000000D+00  0.00000000000000D+00  0.50000000000000D-01
           -0.30000000000000D+00  0.00000000000000D+00  0.50000000000000D-01
           -0.25000000000000D+00  0.00000000000000D+00  0.50000000000000D-01
           -0.20000000000000D+00  0.00000000000000D+00  0.50000000000000D-01
           -0.15000000000000D+00  0.00000000000000D+00  0.50000000000000D-01
           -0.10000000000000D+00  0.00000000000000D+00  0.50000000000000D-01
           -0.50000000000000D-01  0.00000000000000D+00  0.50000000000000D-01
            0.00000000000000D+00  0.50000000000000D-01  0.50000000000000D-01
            0.50000000000000D-01  0.50000000000000D-01  0.50000000000000D-01
            0.10000000000000D+00  0.50000000000000D-01  0.50000000000000D-01
            0.15000000000000D+00  0.50000000000000D-01  0.50000000000000D-01
            0.20000000000000D+00  0.50000000000000D-01  0.50000000000000D-01
            0.25000000000000D+00  0.50000000000000D-01  0.50000000000000D-01
            0.30000000000000D+00  0.50000000000000D-01  0.50000000000000D-01
            0.35000000000000D+00  0.50000000000000D-01  0.50000000000000D-01
            0.40000000000000D+00  0.50000000000000D-01  0.50000000000000D-01
            0.45000000000000D+00  0.50000000000000D-01  0.50000000000000D-01
            0.50000000000000D+00  0.50000000000000D-01  0.50000000000000D-01
           -0.45000000000000D+00  0.50000000000000D-01  0.50000000000000D-01
           -0.40000000000000D+00  0.50000000000000D-01  0.50000000000000D-01
           -0.35000000000000D+00  0.50000000000000D-01  0.50000000000000D-01
           -0.30000000000000D+00  0.50000000000000D-01  0.50000000000000D-01
           -0.25000000000000D+00  0.50000000000000D-01  0.50000000000000D-01
           -0.20000000000000D+00  0.50000000000000D-01  0.50000000000000D-01
           -0.15000000000000D+00  0.50000000000000D-01  0.50000000000000D-01
           -0.10000000000000D+00  0.50000000000000D-01  0.50000000000000D-01
           -0.50000000000000D-01  0.50000000000000D-01  0.50000000000000D-01
            0.00000000000000D+00  0.10000000000000D+00  0.50000000000000D-01
            0.50000000000000D-01  0.10000000000000D+00  0.50000000000000D-01
            0.10000000000000D+00  0.10000000000000D+00  0.50000000000000D-01
            0.15000000000000D+00  0.10000000000000D+00  0.50000000000000D-01
            0.20000000000000D+00  0.10000000000000D+00  0.50000000000000D-01
            0.25000000000000D+00  0.10000000000000D+00  0.50000000000000D-01
            0.30000000000000D+00  0.10000000000000D+00  0.50000000000000D-01
            0.35000000000000D+00  0.10000000000000D+00  0.50000000000000D-01
            0.40000000000000D+00  0.10000000000000D+00  0.50000000000000D-01
            0.45000000000000D+00  0.10000000000000D+00  0.50000000000000D-01
            0.50000000000000D+00  0.10000000000000D+00  0.50000000000000D-01
           -0.45000000000000D+00  0.10000000000000D+00  0.50000000000000D-01
           -0.40000000000000D+00  0.10000000000000D+00  0.50000000000000D-01
           -0.35000000000000D+00  0.10000000000000D+00  0.50000000000000D-01
           -0.30000000000000D+00  0.10000000000000D+00  0.50000000000000D-01
           -0.25000000000000D+00  0.10000000000000D+00  0.50000000000000D-01
           -0.20000000000000D+00  0.10000000000000D+00  0.50000000000000D-01
           -0.15000000000000D+00  0.10000000000000D+00  0.50000000000000D-01
           -0.10000000000000D+00  0.10000000000000D+00  0.50000000000000D-01
           -0.50000000000000D-01  0.10000000000000D+00  0.50000000000000D-01
            0.00000000000000D+00  0.15000000000000D+00  0.50000000000000D-01
            0.50000000000000D-01  0.15000000000000D+00  0.50000000000000D-01
            0.10000000000000D+00  0.15000000000000D+00  0.50000000000000D-01
            0.15000000000000D+00  0.15000000000000D+00  0.50000000000000D-01
            0.20000000000000D+00  0.15000000000000D+00  0.50000000000000D-01
            0.25000000000000D+00  0.15000000000000D+00  0.50000000000000D-01
            0.30000000000000D+00  0.15000000000000D+00  0.50000000000000D-01
            0.35000000000000D+00  0.15000000000000D+00  0.50000000000000D-01
            0.40000000000000D+00  0.15000000000000D+00  0.50000000000000D-01
            0.45000000000000D+00  0.15000000000000D+00  0.50000000000000D-01
            0.50000000000000D+00  0.15000000000000D+00  0.50000000000000D-01
           -0.45000000000000D+00  0.15000000000000D+00  0.50000000000000D-01
           -0.40000000000000D+00  0.15000000000000D+00  0.50000000000000D-01
           -0.35000000000000D+00  0.15000000000000D+00  0.50000000000000D-01
           -0.30000000000000D+00  0.15000000000000D+00  0.50000000000000D-01
           -0.25000000000000D+00  0.15000000000000D+00  0.50000000000000D-01
           -0.20000000000000D+00  0.15000000000000D+00  0.50000000000000D-01
           -0.15000000000000D+00  0.15000000000000D+00  0.50000000000000D-01
           -0.10000000000000D+00  0.15000000000000D+00  0.50000000000000D-01
           -0.50000000000000D-01  0.15000000000000D+00  0.50000000000000D-01
            0.00000000000000D+00  0.20000000000000D+00  0.50000000000000D-01
            0.50000000000000D-01  0.20000000000000D+00  0.50000000000000D-01
            0.10000000000000D+00  0.20000000000000D+00  0.50000000000000D-01
            0.15000000000000D+00  0.20000000000000D+00  0.50000000000000D-01
            0.20000000000000D+00  0.20000000000000D+00  0.50000000000000D-01
            0.25000000000000D+00  0.20000000000000D+00  0.50000000000000D-01
            0.30000000000000D+00  0.20000000000000D+00  0.50000000000000D-01
            0.35000000000000D+00  0.20000000000000D+00  0.50000000000000D-01
            0.40000000000000D+00  0.20000000000000D+00  0.50000000000000D-01
            0.45000000000000D+00  0.20000000000000D+00  0.50000000000000D-01
            0.50000000000000D+00  0.20000000000000D+00  0.50000000000000D-01
           -0.45000000000000D+00  0.20000000000000D+00  0.50000000000000D-01
           -0.40000000000000D+00  0.20000000000000D+00  0.50000000000000D-01
           -0.35000000000000D+00  0.20000000000000D+00  0.50000000000000D-01
           -0.30000000000000D+00  0.20000000000000D+00  0.50000000000000D-01
           -0.25000000000000D+00  0.20000000000000D+00  0.50000000000000D-01
           -0.20000000000000D+00  0.20000000000000D+00  0.50000000000000D-01
           -0.15000000000000D+00  0.20000000000000D+00  0.50000000000000D-01
           -0.10000000000000D+00  0.20000000000000D+00  0.50000000000000D-01
           -0.50000000000000D-01  0.20000000000000D+00  0.50000000000000D-01
            0.00000000000000D+00  0.25000000000000D+00  0.50000000000000D-01
            0.50000000000000D-01  0.25000000000000D+00  0.50000000000000D-01
            0.10000000000000D+00  0.25000000000000D+00  0.50000000000000D-01
            0.15000000000000D+00  0.25000000000000D+00  0.50000000000000D-01
            0.20000000000000D+00  0.25000000000000D+00  0.50000000000000D-01
            0.25000000000000D+00  0.25000000000000D+00  0.50000000000000D-01
            0.30000000000000D+00  0.25000000000000D+00  0.50000000000000D-01
            0.35000000000000D+00  0.25000000000000D+00  0.50000000000000D-01
            0.40000000000000D+00  0.25000000000000D+00  0.50000000000000D-01
            0.45000000000000D+00  0.25000000000000D+00  0.50000000000000D-01
            0.50000000000000D+00  0.25000000000000D+00  0.50000000000000D-01
           -0.45000000000000D+00  0.25000000000000D+00  0.50000000000000D-01
           -0.40000000000000D+00  0.25000000000000D+00  0.50000000000000D-01
           -0.35000000000000D+00  0.25000000000000D+00  0.50000000000000D-01
           -0.30000000000000D+00  0.25000000000000D+00  0.50000000000000D-01
           -0.25000000000000D+00  0.25000000000000D+00  0.50000000000000D-01
           -0.20000000000000D+00  0.25000000000000D+00  0.50000000000000D-01
           -0.15000000000000D+00  0.25000000000000D+00  0.50000000000000D-01
           -0.10000000000000D+00  0.25000000000000D+00  0.50000000000000D-01
           -0.50000000000000D-01  0.25000000000000D+00  0.50000000000000D-01
            0.00000000000000D+00  0.30000000000000D+00  0.50000000000000D-01
            0.50000000000000D-01  0.30000000000000D+00  0.50000000000000D-01
            0.10000000000000D+00  0.30000000000000D+00  0.50000000000000D-01
            0.15000000000000D+00  0.30000000000000D+00  0.50000000000000D-01
            0.20000000000000D+00  0.30000000000000D+00  0.50000000000000D-01
            0.25000000000000D+00  0.30000000000000D+00  0.50000000000000D-01
            0.30000000000000D+00  0.30000000000000D+00  0.50000000000000D-01
            0.35000000000000D+00  0.30000000000000D+00  0.50000000000000D-01
            0.40000000000000D+00  0.30000000000000D+00  0.50000000000000D-01
            0.45000000000000D+00  0.30000000000000D+00  0.50000000000000D-01
            0.50000000000000D+00  0.30000000000000D+00  0.50000000000000D-01
           -0.45000000000000D+00  0.30000000000000D+00  0.50000000000000D-01
           -0.40000000000000D+00  0.30000000000000D+00  0.50000000000000D-01
           -0.35000000000000D+00  0.30000000000000D+00  0.50000000000000D-01
           -0.30000000000000D+00  0.30000000000000D+00  0.50000000000000D-01
           -0.25000000000000D+00  0.30000000000000D+00  0.50000000000000D-01
           -0.20000000000000D+00  0.30000000000000D+00  0.50000000000000D-01
           -0.15000000000000D+00  0.30000000000000D+00  0.50000000000000D-01
           -0.10000000000000D+00  0.30000000000000D+00  0.50000000000000D-01
           -0.50000000000000D-01  0.30000000000000D+00  0.50000000000000D-01
            0.00000000000000D+00  0.35000000000000D+00  0.50000000000000D-01
            0.50000000000000D-01  0.35000000000000D+00  0.50000000000000D-01
            0.10000000000000D+00  0.35000000000000D+00  0.50000000000000D-01
            0.15000000000000D+00  0.35000000000000D+00  0.50000000000000D-01
            0.20000000000000D+00  0.35000000000000D+00  0.50000000000000D-01
            0.25000000000000D+00  0.35000000000000D+00  0.50000000000000D-01
            0.30000000000000D+00  0.35000000000000D+00  0.50000000000000D-01
            0.35000000000000D+00  0.35000000000000D+00  0.50000000000000D-01
            0.40000000000000D+00  0.35000000000000D+00  0.50000000000000D-01
            0.45000000000000D+00  0.35000000000000D+00  0.50000000000000D-01
            0.50000000000000D+00  0.35000000000000D+00  0.50000000000000D-01
           -0.45000000000000D+00  0.35000000000000D+00  0.50000000000000D-01
           -0.40000000000000D+00  0.35000000000000D+00  0.50000000000000D-01
           -0.35000000000000D+00  0.35000000000000D+00  0.50000000000000D-01
           -0.30000000000000D+00  0.35000000000000D+00  0.50000000000000D-01
           -0.25000000000000D+00  0.35000000000000D+00  0.50000000000000D-01
           -0.20000000000000D+00  0.35000000000000D+00  0.50000000000000D-01
           -0.15000000000000D+00  0.35000000000000D+00  0.50000000000000D-01
           -0.10000000000000D+00  0.35000000000000D+00  0.50000000000000D-01
           -0.50000000000000D-01  0.35000000000000D+00  0.50000000000000D-01
            0.00000000000000D+00  0.40000000000000D+00  0.50000000000000D-01
            0.50000000000000D-01  0.40000000000000D+00  0.50000000000000D-01
            0.10000000000000D+00  0.40000000000000D+00  0.50000000000000D-01
            0.15000000000000D+00  0.40000000000000D+00  0.50000000000000D-01
            0.20000000000000D+00  0.40000000000000D+00  0.50000000000000D-01
            0.25000000000000D+00  0.40000000000000D+00  0.50000000000000D-01
            0.30000000000000D+00  0.40000000000000D+00  0.50000000000000D-01
            0.35000000000000D+00  0.40000000000000D+00  0.50000000000000D-01
            0.40000000000000D+00  0.40000000000000D+00  0.50000000000000D-01
            0.45000000000000D+00  0.40000000000000D+00  0.50000000000000D-01
            0.50000000000000D+00  0.40000000000000D+00  0.50000000000000D-01
           -0.45000000000000D+00  0.40000000000000D+00  0.50000000000000D-01
           -0.40000000000000D+00  0.40000000000000D+00  0.50000000000000D-01
           -0.35000000000000D+00  0.40000000000000D+00  0.50000000000000D-01
           -0.30000000000000D+00  0.40000000000000D+00  0.50000000000000D-01
           -0.25000000000000D+00  0.40000000000000D+00  0.50000000000000D-01
           -0.20000000000000D+00  0.40000000000000D+00  0.50000000000000D-01
           -0.15000000000000D+00  0.40000000000000D+00  0.50000000000000D-01
           -0.10000000000000D+00  0.40000000000000D+00  0.50000000000000D-01
           -0.50000000000000D-01  0.40000000000000D+00  0.50000000000000D-01
            0.00000000000000D+00  0.45000000000000D+00  0.50000000000000D-01
            0.50000000000000D-01  0.45000000000000D+00  0.50000000000000D-01
            0.10000000000000D+00  0.45000000000000D+00  0.50000000000000D-01
            0.15000000000000D+00  0.45000000000000D+00  0.50000000000000D-01
            0.20000000000000D+00  0.45000000000000D+00  0.50000000000000D-01
            0.25000000000000D+00  0.45000000000000D+00  0.50000000000000D-01
            0.30000000000000D+00  0.45000000000000D+00  0.50000000000000D-01
            0.35000000000000D+00  0.45000000000000D+00  0.50000000000000D-01
            0.40000000000000D+00  0.45000000000000D+00  0.50000000000000D-01
            0.45000000000000D+00  0.45000000000000D+00  0.50000000000000D-01
            0.50000000000000D+00  0.45000000000000D+00  0.50000000000000D-01
           -0.45000000000000D+00  0.45000000000000D+00  0.50000000000000D-01
           -0.40000000000000D+00  0.45000000000000D+00  0.50000000000000D-01
           -0.35000000000000D+00  0.45000000000000D+00  0.50000000000000D-01
           -0.30000000000000D+00  0.45000000000000D+00  0.50000000000000D-01
           -0.25000000000000D+00  0.45000000000000D+00  0.50000000000000D-01
           -0.20000000000000D+00  0.45000000000000D+00  0.50000000000000D-01
           -0.15000000000000D+00  0.45000000000000D+00  0.50000000000000D-01
           -0.10000000000000D+00  0.45000000000000D+00  0.50000000000000D-01
           -0.50000000000000D-01  0.45000000000000D+00  0.50000000000000D-01
            0.00000000000000D+00  0.50000000000000D+00  0.50000000000000D-01
            0.50000000000000D-01  0.50000000000000D+00  0.50000000000000D-01
            0.10000000000000D+00  0.50000000000000D+00  0.50000000000000D-01
            0.15000000000000D+00  0.50000000000000D+00  0.50000000000000D-01
            0.20000000000000D+00  0.50000000000000D+00  0.50000000000000D-01
            0.25000000000000D+00  0.50000000000000D+00  0.50000000000000D-01
            0.30000000000000D+00  0.50000000000000D+00  0.50000000000000D-01
            0.35000000000000D+00  0.50000000000000D+00  0.50000000000000D-01
            0.40000000000000D+00  0.50000000000000D+00  0.50000000000000D-01
            0.45000000000000D+00  0.50000000000000D+00  0.50000000000000D-01
            0.50000000000000D+00  0.50000000000000D+00  0.50000000000000D-01
           -0.45000000000000D+00  0.50000000000000D+00  0.50000000000000D-01
           -0.40000000000000D+00  0.50000000000000D+00  0.50000000000000D-01
           -0.35000000000000D+00  0.50000000000000D+00  0.50000000000000D-01
           -0.30000000000000D+00  0.50000000000000D+00  0.50000000000000D-01
           -0.25000000000000D+00  0.50000000000000D+00  0.50000000000000D-01
           -0.20000000000000D+00  0.50000000000000D+00  0.50000000000000D-01
           -0.15000000000000D+00  0.50000000000000D+00  0.50000000000000D-01
           -0.10000000000000D+00  0.50000000000000D+00  0.50000000000000D-01
           -0.50000000000000D-01  0.50000000000000D+00  0.50000000000000D-01
            0.00000000000000D+00 -0.45000000000000D+00  0.50000000000000D-01
            0.50000000000000D-01 -0.45000000000000D+00  0.50000000000000D-01
            0.10000000000000D+00 -0.45000000000000D+00  0.50000000000000D-01
            0.15000000000000D+00 -0.45000000000000D+00  0.50000000000000D-01
            0.20000000000000D+00 -0.45000000000000D+00  0.50000000000000D-01
            0.25000000000000D+00 -0.45000000000000D+00  0.50000000000000D-01
            0.30000000000000D+00 -0.45000000000000D+00  0.50000000000000D-01
            0.35000000000000D+00 -0.45000000000000D+00  0.50000000000000D-01
            0.40000000000000D+00 -0.45000000000000D+00  0.50000000000000D-01
            0.45000000000000D+00 -0.45000000000000D+00  0.50000000000000D-01
            0.50000000000000D+00 -0.45000000000000D+00  0.50000000000000D-01
           -0.45000000000000D+00 -0.45000000000000D+00  0.50000000000000D-01
           -0.40000000000000D+00 -0.45000000000000D+00  0.50000000000000D-01
           -0.35000000000000D+00 -0.45000000000000D+00  0.50000000000000D-01
           -0.30000000000000D+00 -0.45000000000000D+00  0.50000000000000D-01
           -0.25000000000000D+00 -0.45000000000000D+00  0.50000000000000D-01
           -0.20000000000000D+00 -0.45000000000000D+00  0.50000000000000D-01
           -0.15000000000000D+00 -0.45000000000000D+00  0.50000000000000D-01
           -0.10000000000000D+00 -0.45000000000000D+00  0.50000000000000D-01
           -0.50000000000000D-01 -0.45000000000000D+00  0.50000000000000D-01
            0.00000000000000D+00 -0.40000000000000D+00  0.50000000000000D-01
            0.50000000000000D-01 -0.40000000000000D+00  0.50000000000000D-01
            0.10000000000000D+00 -0.40000000000000D+00  0.50000000000000D-01
            0.15000000000000D+00 -0.40000000000000D+00  0.50000000000000D-01
            0.20000000000000D+00 -0.40000000000000D+00  0.50000000000000D-01
            0.25000000000000D+00 -0.40000000000000D+00  0.50000000000000D-01
            0.30000000000000D+00 -0.40000000000000D+00  0.50000000000000D-01
            0.35000000000000D+00 -0.40000000000000D+00  0.50000000000000D-01
            0.40000000000000D+00 -0.40000000000000D+00  0.50000000000000D-01
            0.45000000000000D+00 -0.40000000000000D+00  0.50000000000000D-01
            0.50000000000000D+00 -0.40000000000000D+00  0.50000000000000D-01
           -0.45000000000000D+00 -0.40000000000000D+00  0.50000000000000D-01
           -0.40000000000000D+00 -0.40000000000000D+00  0.50000000000000D-01
           -0.35000000000000D+00 -0.40000000000000D+00  0.50000000000000D-01
           -0.30000000000000D+00 -0.40000000000000D+00  0.50000000000000D-01
           -0.25000000000000D+00 -0.40000000000000D+00  0.50000000000000D-01
           -0.20000000000000D+00 -0.40000000000000D+00  0.50000000000000D-01
           -0.15000000000000D+00 -0.40000000000000D+00  0.50000000000000D-01
           -0.10000000000000D+00 -0.40000000000000D+00  0.50000000000000D-01
           -0.50000000000000D-01 -0.40000000000000D+00  0.50000000000000D-01
            0.00000000000000D+00 -0.35000000000000D+00  0.50000000000000D-01
            0.50000000000000D-01 -0.35000000000000D+00  0.50000000000000D-01
            0.10000000000000D+00 -0.35000000000000D+00  0.50000000000000D-01
            0.15000000000000D+00 -0.35000000000000D+00  0.50000000000000D-01
            0.20000000000000D+00 -0.35000000000000D+00  0.50000000000000D-01
            0.25000000000000D+00 -0.35000000000000D+00  0.50000000000000D-01
            0.30000000000000D+00 -0.35000000000000D+00  0.50000000000000D-01
            0.35000000000000D+00 -0.35000000000000D+00  0.50000000000000D-01
            0.40000000000000D+00 -0.35000000000000D+00  0.50000000000000D-01
            0.45000000000000D+00 -0.35000000000000D+00  0.50000000000000D-01
            0.50000000000000D+00 -0.35000000000000D+00  0.50000000000000D-01
           -0.45000000000000D+00 -0.35000000000000D+00  0.50000000000000D-01
           -0.40000000000000D+00 -0.35000000000000D+00  0.50000000000000D-01
           -0.35000000000000D+00 -0.35000000000000D+00  0.50000000000000D-01
           -0.30000000000000D+00 -0.35000000000000D+00  0.50000000000000D-01
           -0.25000000000000D+00 -0.35000000000000D+00  0.50000000000000D-01
           -0.20000000000000D+00 -0.35000000000000D+00  0.50000000000000D-01
           -0.15000000000000D+00 -0.35000000000000D+00  0.50000000000000D-01
           -0.10000000000000D+00 -0.35000000000000D+00  0.50000000000000D-01
           -0.50000000000000D-01 -0.35000000000000D+00  0.50000000000000D-01
            0.00000000000000D+00 -0.30000000000000D+00  0.50000000000000D-01
            0.50000000000000D-01 -0.30000000000000D+00  0.50000000000000D-01
            0.10000000000000D+00 -0.30000000000000D+00  0.50000000000000D-01
            0.15000000000000D+00 -0.30000000000000D+00  0.50000000000000D-01
            0.20000000000000D+00 -0.30000000000000D+00  0.50000000000000D-01
            0.25000000000000D+00 -0.30000000000000D+00  0.50000000000000D-01
            0.30000000000000D+00 -0.30000000000000D+00  0.50000000000000D-01
            0.35000000000000D+00 -0.30000000000000D+00  0.50000000000000D-01
            0.40000000000000D+00 -0.30000000000000D+00  0.50000000000000D-01
            0.45000000000000D+00 -0.30000000000000D+00  0.50000000000000D-01
            0.50000000000000D+00 -0.30000000000000D+00  0.50000000000000D-01
           -0.45000000000000D+00 -0.30000000000000D+00  0.50000000000000D-01
           -0.40000000000000D+00 -0.30000000000000D+00  0.50000000000000D-01
           -0.35000000000000D+00 -0.30000000000000D+00  0.50000000000000D-01
           -0.30000000000000D+00 -0.30000000000000D+00  0.50000000000000D-01
           -0.25000000000000D+00 -0.30000000000000D+00  0.50000000000000D-01
           -0.20000000000000D+00 -0.30000000000000D+00  0.50000000000000D-01
           -0.15000000000000D+00 -0.30000000000000D+00  0.50000000000000D-01
           -0.10000000000000D+00 -0.30000000000000D+00  0.50000000000000D-01
           -0.50000000000000D-01 -0.30000000000000D+00  0.50000000000000D-01
            0.00000000000000D+00 -0.25000000000000D+00  0.50000000000000D-01
            0.50000000000000D-01 -0.25000000000000D+00  0.50000000000000D-01
            0.10000000000000D+00 -0.25000000000000D+00  0.50000000000000D-01
            0.15000000000000D+00 -0.25000000000000D+00  0.50000000000000D-01
            0.20000000000000D+00 -0.25000000000000D+00  0.50000000000000D-01
            0.25000000000000D+00 -0.25000000000000D+00  0.50000000000000D-01
            0.30000000000000D+00 -0.25000000000000D+00  0.50000000000000D-01
            0.35000000000000D+00 -0.25000000000000D+00  0.50000000000000D-01
            0.40000000000000D+00 -0.25000000000000D+00  0.50000000000000D-01
            0.45000000000000D+00 -0.25000000000000D+00  0.50000000000000D-01
            0.50000000000000D+00 -0.25000000000000D+00  0.50000000000000D-01
           -0.45000000000000D+00 -0.25000000000000D+00  0.50000000000000D-01
           -0.40000000000000D+00 -0.25000000000000D+00  0.50000000000000D-01
           -0.35000000000000D+00 -0.25000000000000D+00  0.50000000000000D-01
           -0.30000000000000D+00 -0.25000000000000D+00  0.50000000000000D-01
           -0.25000000000000D+00 -0.25000000000000D+00  0.50000000000000D-01
           -0.20000000000000D+00 -0.25000000000000D+00  0.50000000000000D-01
           -0.15000000000000D+00 -0.25000000000000D+00  0.50000000000000D-01
           -0.10000000000000D+00 -0.25000000000000D+00  0.50000000000000D-01
           -0.50000000000000D-01 -0.25000000000000D+00  0.50000000000000D-01
            0.00000000000000D+00 -0.20000000000000D+00  0.50000000000000D-01
            0.50000000000000D-01 -0.20000000000000D+00  0.50000000000000D-01
            0.10000000000000D+00 -0.20000000000000D+00  0.50000000000000D-01
            0.15000000000000D+00 -0.20000000000000D+00  0.50000000000000D-01
            0.20000000000000D+00 -0.20000000000000D+00  0.50000000000000D-01
            0.25000000000000D+00 -0.20000000000000D+00  0.50000000000000D-01
            0.30000000000000D+00 -0.20000000000000D+00  0.50000000000000D-01
            0.35000000000000D+00 -0.20000000000000D+00  0.50000000000000D-01
            0.40000000000000D+00 -0.20000000000000D+00  0.50000000000000D-01
            0.45000000000000D+00 -0.20000000000000D+00  0.50000000000000D-01
            0.50000000000000D+00 -0.20000000000000D+00  0.50000000000000D-01
           -0.45000000000000D+00 -0.20000000000000D+00  0.50000000000000D-01
           -0.40000000000000D+00 -0.20000000000000D+00  0.50000000000000D-01
           -0.35000000000000D+00 -0.20000000000000D+00  0.50000000000000D-01
           -0.30000000000000D+00 -0.20000000000000D+00  0.50000000000000D-01
           -0.25000000000000D+00 -0.20000000000000D+00  0.50000000000000D-01
           -0.20000000000000D+00 -0.20000000000000D+00  0.50000000000000D-01
           -0.15000000000000D+00 -0.20000000000000D+00  0.50000000000000D-01
           -0.10000000000000D+00 -0.20000000000000D+00  0.50000000000000D-01
           -0.50000000000000D-01 -0.20000000000000D+00  0.50000000000000D-01
            0.00000000000000D+00 -0.15000000000000D+00  0.50000000000000D-01
            0.50000000000000D-01 -0.15000000000000D+00  0.50000000000000D-01
            0.10000000000000D+00 -0.15000000000000D+00  0.50000000000000D-01
            0.15000000000000D+00 -0.15000000000000D+00  0.50000000000000D-01
            0.20000000000000D+00 -0.15000000000000D+00  0.50000000000000D-01
            0.25000000000000D+00 -0.15000000000000D+00  0.50000000000000D-01
            0.30000000000000D+00 -0.15000000000000D+00  0.50000000000000D-01
            0.35000000000000D+00 -0.15000000000000D+00  0.50000000000000D-01
            0.40000000000000D+00 -0.15000000000000D+00  0.50000000000000D-01
            0.45000000000000D+00 -0.15000000000000D+00  0.50000000000000D-01
            0.50000000000000D+00 -0.15000000000000D+00  0.50000000000000D-01
           -0.45000000000000D+00 -0.15000000000000D+00  0.50000000000000D-01
           -0.40000000000000D+00 -0.15000000000000D+00  0.50000000000000D-01
           -0.35000000000000D+00 -0.15000000000000D+00  0.50000000000000D-01
           -0.30000000000000D+00 -0.15000000000000D+00  0.50000000000000D-01
           -0.25000000000000D+00 -0.15000000000000D+00  0.50000000000000D-01
           -0.20000000000000D+00 -0.15000000000000D+00  0.50000000000000D-01
           -0.15000000000000D+00 -0.15000000000000D+00  0.50000000000000D-01
           -0.10000000000000D+00 -0.15000000000000D+00  0.50000000000000D-01
           -0.50000000000000D-01 -0.15000000000000D+00  0.50000000000000D-01
            0.00000000000000D+00 -0.10000000000000D+00  0.50000000000000D-01
            0.50000000000000D-01 -0.10000000000000D+00  0.50000000000000D-01
            0.10000000000000D+00 -0.10000000000000D+00  0.50000000000000D-01
            0.15000000000000D+00 -0.10000000000000D+00  0.50000000000000D-01
            0.20000000000000D+00 -0.10000000000000D+00  0.50000000000000D-01
            0.25000000000000D+00 -0.10000000000000D+00  0.50000000000000D-01
            0.30000000000000D+00 -0.10000000000000D+00  0.50000000000000D-01
            0.35000000000000D+00 -0.10000000000000D+00  0.50000000000000D-01
            0.40000000000000D+00 -0.10000000000000D+00  0.50000000000000D-01
            0.45000000000000D+00 -0.10000000000000D+00  0.50000000000000D-01
            0.50000000000000D+00 -0.10000000000000D+00  0.50000000000000D-01
           -0.45000000000000D+00 -0.10000000000000D+00  0.50000000000000D-01
           -0.40000000000000D+00 -0.10000000000000D+00  0.50000000000000D-01
           -0.35000000000000D+00 -0.10000000000000D+00  0.50000000000000D-01
           -0.30000000000000D+00 -0.10000000000000D+00  0.50000000000000D-01
           -0.25000000000000D+00 -0.10000000000000D+00  0.50000000000000D-01
           -0.20000000000000D+00 -0.10000000000000D+00  0.50000000000000D-01
           -0.15000000000000D+00 -0.10000000000000D+00  0.50000000000000D-01
           -0.10000000000000D+00 -0.10000000000000D+00  0.50000000000000D-01
           -0.50000000000000D-01 -0.10000000000000D+00  0.50000000000000D-01
            0.00000000000000D+00 -0.50000000000000D-01  0.50000000000000D-01
            0.50000000000000D-01 -0.50000000000000D-01  0.50000000000000D-01
            0.10000000000000D+00 -0.50000000000000D-01  0.50000000000000D-01
            0.15000000000000D+00 -0.50000000000000D-01  0.50000000000000D-01
            0.20000000000000D+00 -0.50000000000000D-01  0.50000000000000D-01
            0.25000000000000D+00 -0.50000000000000D-01  0.50000000000000D-01
            0.30000000000000D+00 -0.50000000000000D-01  0.50000000000000D-01
            0.35000000000000D+00 -0.50000000000000D-01  0.50000000000000D-01
            0.40000000000000D+00 -0.50000000000000D-01  0.50000000000000D-01
            0.45000000000000D+00 -0.50000000000000D-01  0.50000000000000D-01
            0.50000000000000D+00 -0.50000000000000D-01  0.50000000000000D-01
           -0.45000000000000D+00 -0.50000000000000D-01  0.50000000000000D-01
           -0.40000000000000D+00 -0.50000000000000D-01  0.50000000000000D-01
           -0.35000000000000D+00 -0.50000000000000D-01  0.50000000000000D-01
           -0.30000000000000D+00 -0.50000000000000D-01  0.50000000000000D-01
           -0.25000000000000D+00 -0.50000000000000D-01  0.50000000000000D-01
           -0.20000000000000D+00 -0.50000000000000D-01  0.50000000000000D-01
           -0.15000000000000D+00 -0.50000000000000D-01  0.50000000000000D-01
           -0.10000000000000D+00 -0.50000000000000D-01  0.50000000000000D-01
           -0.50000000000000D-01 -0.50000000000000D-01  0.50000000000000D-01
            0.00000000000000D+00  0.00000000000000D+00  0.10000000000000D+00
            0.50000000000000D-01  0.00000000000000D+00  0.10000000000000D+00
            0.10000000000000D+00  0.00000000000000D+00  0.10000000000000D+00
            0.15000000000000D+00  0.00000000000000D+00  0.10000000000000D+00
            0.20000000000000D+00  0.00000000000000D+00  0.10000000000000D+00
            0.25000000000000D+00  0.00000000000000D+00  0.10000000000000D+00
            0.30000000000000D+00  0.00000000000000D+00  0.10000000000000D+00
            0.35000000000000D+00  0.00000000000000D+00  0.10000000000000D+00
            0.40000000000000D+00  0.00000000000000D+00  0.10000000000000D+00
            0.45000000000000D+00  0.00000000000000D+00  0.10000000000000D+00
            0.50000000000000D+00  0.00000000000000D+00  0.10000000000000D+00
           -0.45000000000000D+00  0.00000000000000D+00  0.10000000000000D+00
           -0.40000000000000D+00  0.00000000000000D+00  0.10000000000000D+00
           -0.35000000000000D+00  0.00000000000000D+00  0.10000000000000D+00
           -0.30000000000000D+00  0.00000000000000D+00  0.10000000000000D+00
           -0.25000000000000D+00  0.00000000000000D+00  0.10000000000000D+00
           -0.20000000000000D+00  0.00000000000000D+00  0.10000000000000D+00
           -0.15000000000000D+00  0.00000000000000D+00  0.10000000000000D+00
           -0.10000000000000D+00  0.00000000000000D+00  0.10000000000000D+00
           -0.50000000000000D-01  0.00000000000000D+00  0.10000000000000D+00
            0.00000000000000D+00  0.50000000000000D-01  0.10000000000000D+00
            0.50000000000000D-01  0.50000000000000D-01  0.10000000000000D+00
            0.10000000000000D+00  0.50000000000000D-01  0.10000000000000D+00
            0.15000000000000D+00  0.50000000000000D-01  0.10000000000000D+00
            0.20000000000000D+00  0.50000000000000D-01  0.10000000000000D+00
            0.25000000000000D+00  0.50000000000000D-01  0.10000000000000D+00
            0.30000000000000D+00  0.50000000000000D-01  0.10000000000000D+00
            0.35000000000000D+00  0.50000000000000D-01  0.10000000000000D+00
            0.40000000000000D+00  0.50000000000000D-01  0.10000000000000D+00
            0.45000000000000D+00  0.50000000000000D-01  0.10000000000000D+00
            0.50000000000000D+00  0.50000000000000D-01  0.10000000000000D+00
           -0.45000000000000D+00  0.50000000000000D-01  0.10000000000000D+00
           -0.40000000000000D+00  0.50000000000000D-01  0.10000000000000D+00
           -0.35000000000000D+00  0.50000000000000D-01  0.10000000000000D+00
           -0.30000000000000D+00  0.50000000000000D-01  0.10000000000000D+00
           -0.25000000000000D+00  0.50000000000000D-01  0.10000000000000D+00
           -0.20000000000000D+00  0.50000000000000D-01  0.10000000000000D+00
           -0.15000000000000D+00  0.50000000000000D-01  0.10000000000000D+00
           -0.10000000000000D+00  0.50000000000000D-01  0.10000000000000D+00
           -0.50000000000000D-01  0.50000000000000D-01  0.10000000000000D+00
            0.00000000000000D+00  0.10000000000000D+00  0.10000000000000D+00
            0.50000000000000D-01  0.10000000000000D+00  0.10000000000000D+00
            0.10000000000000D+00  0.10000000000000D+00  0.10000000000000D+00
            0.15000000000000D+00  0.10000000000000D+00  0.10000000000000D+00
            0.20000000000000D+00  0.10000000000000D+00  0.10000000000000D+00
            0.25000000000000D+00  0.10000000000000D+00  0.10000000000000D+00
            0.30000000000000D+00  0.10000000000000D+00  0.10000000000000D+00
            0.35000000000000D+00  0.10000000000000D+00  0.10000000000000D+00
            0.40000000000000D+00  0.10000000000000D+00  0.10000000000000D+00
            0.45000000000000D+00  0.10000000000000D+00  0.10000000000000D+00
            0.50000000000000D+00  0.10000000000000D+00  0.10000000000000D+00
           -0.45000000000000D+00  0.10000000000000D+00  0.10000000000000D+00
           -0.40000000000000D+00  0.10000000000000D+00  0.10000000000000D+00
           -0.35000000000000D+00  0.10000000000000D+00  0.10000000000000D+00
           -0.30000000000000D+00  0.10000000000000D+00  0.10000000000000D+00
           -0.25000000000000D+00  0.10000000000000D+00  0.10000000000000D+00
           -0.20000000000000D+00  0.10000000000000D+00  0.10000000000000D+00
           -0.15000000000000D+00  0.10000000000000D+00  0.10000000000000D+00
           -0.10000000000000D+00  0.10000000000000D+00  0.10000000000000D+00
           -0.50000000000000D-01  0.10000000000000D+00  0.10000000000000D+00
            0.00000000000000D+00  0.15000000000000D+00  0.10000000000000D+00
            0.50000000000000D-01  0.15000000000000D+00  0.10000000000000D+00
            0.10000000000000D+00  0.15000000000000D+00  0.10000000000000D+00
            0.15000000000000D+00  0.15000000000000D+00  0.10000000000000D+00
            0.20000000000000D+00  0.15000000000000D+00  0.10000000000000D+00
            0.25000000000000D+00  0.15000000000000D+00  0.10000000000000D+00
            0.30000000000000D+00  0.15000000000000D+00  0.10000000000000D+00
            0.35000000000000D+00  0.15000000000000D+00  0.10000000000000D+00
            0.40000000000000D+00  0.15000000000000D+00  0.10000000000000D+00
            0.45000000000000D+00  0.15000000000000D+00  0.10000000000000D+00
            0.50000000000000D+00  0.15000000000000D+00  0.10000000000000D+00
           -0.45000000000000D+00  0.15000000000000D+00  0.10000000000000D+00
           -0.40000000000000D+00  0.15000000000000D+00  0.10000000000000D+00
           -0.35000000000000D+00  0.15000000000000D+00  0.10000000000000D+00
           -0.30000000000000D+00  0.15000000000000D+00  0.10000000000000D+00
           -0.25000000000000D+00  0.15000000000000D+00  0.10000000000000D+00
           -0.20000000000000D+00  0.15000000000000D+00  0.10000000000000D+00
           -0.15000000000000D+00  0.15000000000000D+00  0.10000000000000D+00
           -0.10000000000000D+00  0.15000000000000D+00  0.10000000000000D+00
           -0.50000000000000D-01  0.15000000000000D+00  0.10000000000000D+00
            0.00000000000000D+00  0.20000000000000D+00  0.10000000000000D+00
            0.50000000000000D-01  0.20000000000000D+00  0.10000000000000D+00
            0.10000000000000D+00  0.20000000000000D+00  0.10000000000000D+00
            0.15000000000000D+00  0.20000000000000D+00  0.10000000000000D+00
            0.20000000000000D+00  0.20000000000000D+00  0.10000000000000D+00
            0.25000000000000D+00  0.20000000000000D+00  0.10000000000000D+00
            0.30000000000000D+00  0.20000000000000D+00  0.10000000000000D+00
            0.35000000000000D+00  0.20000000000000D+00  0.10000000000000D+00
            0.40000000000000D+00  0.20000000000000D+00  0.10000000000000D+00
            0.45000000000000D+00  0.20000000000000D+00  0.10000000000000D+00
            0.50000000000000D+00  0.20000000000000D+00  0.10000000000000D+00
           -0.45000000000000D+00  0.20000000000000D+00  0.10000000000000D+00
           -0.40000000000000D+00  0.20000000000000D+00  0.10000000000000D+00
           -0.35000000000000D+00  0.20000000000000D+00  0.10000000000000D+00
           -0.30000000000000D+00  0.20000000000000D+00  0.10000000000000D+00
           -0.25000000000000D+00  0.20000000000000D+00  0.10000000000000D+00
           -0.20000000000000D+00  0.20000000000000D+00  0.10000000000000D+00
           -0.15000000000000D+00  0.20000000000000D+00  0.10000000000000D+00
           -0.10000000000000D+00  0.20000000000000D+00  0.10000000000000D+00
           -0.50000000000000D-01  0.20000000000000D+00  0.10000000000000D+00
            0.00000000000000D+00  0.25000000000000D+00  0.10000000000000D+00
            0.50000000000000D-01  0.25000000000000D+00  0.10000000000000D+00
            0.10000000000000D+00  0.25000000000000D+00  0.10000000000000D+00
            0.15000000000000D+00  0.25000000000000D+00  0.10000000000000D+00
            0.20000000000000D+00  0.25000000000000D+00  0.10000000000000D+00
            0.25000000000000D+00  0.25000000000000D+00  0.10000000000000D+00
            0.30000000000000D+00  0.25000000000000D+00  0.10000000000000D+00
            0.35000000000000D+00  0.25000000000000D+00  0.10000000000000D+00
            0.40000000000000D+00  0.25000000000000D+00  0.10000000000000D+00
            0.45000000000000D+00  0.25000000000000D+00  0.10000000000000D+00
            0.50000000000000D+00  0.25000000000000D+00  0.10000000000000D+00
           -0.45000000000000D+00  0.25000000000000D+00  0.10000000000000D+00
           -0.40000000000000D+00  0.25000000000000D+00  0.10000000000000D+00
           -0.35000000000000D+00  0.25000000000000D+00  0.10000000000000D+00
           -0.30000000000000D+00  0.25000000000000D+00  0.10000000000000D+00
           -0.25000000000000D+00  0.25000000000000D+00  0.10000000000000D+00
           -0.20000000000000D+00  0.25000000000000D+00  0.10000000000000D+00
           -0.15000000000000D+00  0.25000000000000D+00  0.10000000000000D+00
           -0.10000000000000D+00  0.25000000000000D+00  0.10000000000000D+00
           -0.50000000000000D-01  0.25000000000000D+00  0.10000000000000D+00
            0.00000000000000D+00  0.30000000000000D+00  0.10000000000000D+00
            0.50000000000000D-01  0.30000000000000D+00  0.10000000000000D+00
            0.10000000000000D+00  0.30000000000000D+00  0.10000000000000D+00
            0.15000000000000D+00  0.30000000000000D+00  0.10000000000000D+00
            0.20000000000000D+00  0.30000000000000D+00  0.10000000000000D+00
            0.25000000000000D+00  0.30000000000000D+00  0.10000000000000D+00
            0.30000000000000D+00  0.30000000000000D+00  0.10000000000000D+00
            0.35000000000000D+00  0.30000000000000D+00  0.10000000000000D+00
            0.40000000000000D+00  0.30000000000000D+00  0.10000000000000D+00
            0.45000000000000D+00  0.30000000000000D+00  0.10000000000000D+00
            0.50000000000000D+00  0.30000000000000D+00  0.10000000000000D+00
           -0.45000000000000D+00  0.30000000000000D+00  0.10000000000000D+00
           -0.40000000000000D+00  0.30000000000000D+00  0.10000000000000D+00
           -0.35000000000000D+00  0.30000000000000D+00  0.10000000000000D+00
           -0.30000000000000D+00  0.30000000000000D+00  0.10000000000000D+00
           -0.25000000000000D+00  0.30000000000000D+00  0.10000000000000D+00
           -0.20000000000000D+00  0.30000000000000D+00  0.10000000000000D+00
           -0.15000000000000D+00  0.30000000000000D+00  0.10000000000000D+00
           -0.10000000000000D+00  0.30000000000000D+00  0.10000000000000D+00
           -0.50000000000000D-01  0.30000000000000D+00  0.10000000000000D+00
            0.00000000000000D+00  0.35000000000000D+00  0.10000000000000D+00
            0.50000000000000D-01  0.35000000000000D+00  0.10000000000000D+00
            0.10000000000000D+00  0.35000000000000D+00  0.10000000000000D+00
            0.15000000000000D+00  0.35000000000000D+00  0.10000000000000D+00
            0.20000000000000D+00  0.35000000000000D+00  0.10000000000000D+00
            0.25000000000000D+00  0.35000000000000D+00  0.10000000000000D+00
            0.30000000000000D+00  0.35000000000000D+00  0.10000000000000D+00
            0.35000000000000D+00  0.35000000000000D+00  0.10000000000000D+00
            0.40000000000000D+00  0.35000000000000D+00  0.10000000000000D+00
            0.45000000000000D+00  0.35000000000000D+00  0.10000000000000D+00
            0.50000000000000D+00  0.35000000000000D+00  0.10000000000000D+00
           -0.45000000000000D+00  0.35000000000000D+00  0.10000000000000D+00
           -0.40000000000000D+00  0.35000000000000D+00  0.10000000000000D+00
           -0.35000000000000D+00  0.35000000000000D+00  0.10000000000000D+00
           -0.30000000000000D+00  0.35000000000000D+00  0.10000000000000D+00
           -0.25000000000000D+00  0.35000000000000D+00  0.10000000000000D+00
           -0.20000000000000D+00  0.35000000000000D+00  0.10000000000000D+00
           -0.15000000000000D+00  0.35000000000000D+00  0.10000000000000D+00
           -0.10000000000000D+00  0.35000000000000D+00  0.10000000000000D+00
           -0.50000000000000D-01  0.35000000000000D+00  0.10000000000000D+00
            0.00000000000000D+00  0.40000000000000D+00  0.10000000000000D+00
            0.50000000000000D-01  0.40000000000000D+00  0.10000000000000D+00
            0.10000000000000D+00  0.40000000000000D+00  0.10000000000000D+00
            0.15000000000000D+00  0.40000000000000D+00  0.10000000000000D+00
            0.20000000000000D+00  0.40000000000000D+00  0.10000000000000D+00
            0.25000000000000D+00  0.40000000000000D+00  0.10000000000000D+00
            0.30000000000000D+00  0.40000000000000D+00  0.10000000000000D+00
            0.35000000000000D+00  0.40000000000000D+00  0.10000000000000D+00
            0.40000000000000D+00  0.40000000000000D+00  0.10000000000000D+00
            0.45000000000000D+00  0.40000000000000D+00  0.10000000000000D+00
            0.50000000000000D+00  0.40000000000000D+00  0.10000000000000D+00
           -0.45000000000000D+00  0.40000000000000D+00  0.10000000000000D+00
           -0.40000000000000D+00  0.40000000000000D+00  0.10000000000000D+00
           -0.35000000000000D+00  0.40000000000000D+00  0.10000000000000D+00
           -0.30000000000000D+00  0.40000000000000D+00  0.10000000000000D+00
           -0.25000000000000D+00  0.40000000000000D+00  0.10000000000000D+00
           -0.20000000000000D+00  0.40000000000000D+00  0.10000000000000D+00
           -0.15000000000000D+00  0.40000000000000D+00  0.10000000000000D+00
           -0.10000000000000D+00  0.40000000000000D+00  0.10000000000000D+00
           -0.50000000000000D-01  0.40000000000000D+00  0.10000000000000D+00
            0.00000000000000D+00  0.45000000000000D+00  0.10000000000000D+00
            0.50000000000000D-01  0.45000000000000D+00  0.10000000000000D+00
            0.10000000000000D+00  0.45000000000000D+00  0.10000000000000D+00
            0.15000000000000D+00  0.45000000000000D+00  0.10000000000000D+00
            0.20000000000000D+00  0.45000000000000D+00  0.10000000000000D+00
            0.25000000000000D+00  0.45000000000000D+00  0.10000000000000D+00
            0.30000000000000D+00  0.45000000000000D+00  0.10000000000000D+00
            0.35000000000000D+00  0.45000000000000D+00  0.10000000000000D+00
            0.40000000000000D+00  0.45000000000000D+00  0.10000000000000D+00
            0.45000000000000D+00  0.45000000000000D+00  0.10000000000000D+00
            0.50000000000000D+00  0.45000000000000D+00  0.10000000000000D+00
           -0.45000000000000D+00  0.45000000000000D+00  0.10000000000000D+00
           -0.40000000000000D+00  0.45000000000000D+00  0.10000000000000D+00
           -0.35000000000000D+00  0.45000000000000D+00  0.10000000000000D+00
           -0.30000000000000D+00  0.45000000000000D+00  0.10000000000000D+00
           -0.25000000000000D+00  0.45000000000000D+00  0.10000000000000D+00
           -0.20000000000000D+00  0.45000000000000D+00  0.10000000000000D+00
           -0.15000000000000D+00  0.45000000000000D+00  0.10000000000000D+00
           -0.10000000000000D+00  0.45000000000000D+00  0.10000000000000D+00
           -0.50000000000000D-01  0.45000000000000D+00  0.10000000000000D+00
            0.00000000000000D+00  0.50000000000000D+00  0.10000000000000D+00
            0.50000000000000D-01  0.50000000000000D+00  0.10000000000000D+00
            0.10000000000000D+00  0.50000000000000D+00  0.10000000000000D+00
            0.15000000000000D+00  0.50000000000000D+00  0.10000000000000D+00
            0.20000000000000D+00  0.50000000000000D+00  0.10000000000000D+00
            0.25000000000000D+00  0.50000000000000D+00  0.10000000000000D+00
            0.30000000000000D+00  0.50000000000000D+00  0.10000000000000D+00
            0.35000000000000D+00  0.50000000000000D+00  0.10000000000000D+00
            0.40000000000000D+00  0.50000000000000D+00  0.10000000000000D+00
            0.45000000000000D+00  0.50000000000000D+00  0.10000000000000D+00
            0.50000000000000D+00  0.50000000000000D+00  0.10000000000000D+00
           -0.45000000000000D+00  0.50000000000000D+00  0.10000000000000D+00
           -0.40000000000000D+00  0.50000000000000D+00  0.10000000000000D+00
           -0.35000000000000D+00  0.50000000000000D+00  0.10000000000000D+00
           -0.30000000000000D+00  0.50000000000000D+00  0.10000000000000D+00
           -0.25000000000000D+00  0.50000000000000D+00  0.10000000000000D+00
           -0.20000000000000D+00  0.50000000000000D+00  0.10000000000000D+00
           -0.15000000000000D+00  0.50000000000000D+00  0.10000000000000D+00
           -0.10000000000000D+00  0.50000000000000D+00  0.10000000000000D+00
           -0.50000000000000D-01  0.50000000000000D+00  0.10000000000000D+00
            0.00000000000000D+00 -0.45000000000000D+00  0.10000000000000D+00
            0.50000000000000D-01 -0.45000000000000D+00  0.10000000000000D+00
            0.10000000000000D+00 -0.45000000000000D+00  0.10000000000000D+00
            0.15000000000000D+00 -0.45000000000000D+00  0.10000000000000D+00
            0.20000000000000D+00 -0.45000000000000D+00  0.10000000000000D+00
            0.25000000000000D+00 -0.45000000000000D+00  0.10000000000000D+00
            0.30000000000000D+00 -0.45000000000000D+00  0.10000000000000D+00
            0.35000000000000D+00 -0.45000000000000D+00  0.10000000000000D+00
            0.40000000000000D+00 -0.45000000000000D+00  0.10000000000000D+00
            0.45000000000000D+00 -0.45000000000000D+00  0.10000000000000D+00
            0.50000000000000D+00 -0.45000000000000D+00  0.10000000000000D+00
[...]
   1   4   2   2 -0.13752386575448D-08  0.00000000000000D+00
   2   4   2   2 -0.12765389679415D+02  0.00000000000000D+00
   3   4   2   2  0.13310296933269D-08  0.00000000000000D+00
   1   1   3   2 -0.16092118708575D+00  0.00000000000000D+00
   2   1   3   2 -0.16092118708575D+00  0.00000000000000D+00
   3   1   3   2 -0.32184237417150D+00  0.00000000000000D+00
   1   2   3   2  0.16660164145031D+00  0.00000000000000D+00
   2   2   3   2  0.16660164145032D+00  0.00000000000000D+00
   3   2   3   2  0.33320328290061D+00  0.00000000000000D+00
   1   4   3   2 -0.65279958280325D-09  0.00000000000000D+00
   2   4   3   2  0.70072237700564D-09  0.00000000000000D+00
   3   4   3   2 -0.12765389679329D+02  0.00000000000000D+00
   1   1   1   4 -0.12483325707231D+02  0.00000000000000D+00
   2   1   1   4 -0.11837499064304D-07  0.00000000000000D+00
   3   1   1   4 -0.27486102568743D-07  0.00000000000000D+00
   1   2   1   4 -0.12765389706018D+02  0.00000000000000D+00
   2   2   1   4 -0.13752386575448D-08  0.00000000000000D+00
   3   2   1   4 -0.65279958280325D-09  0.00000000000000D+00
   1   4   1   4 -0.68164038987451D+02  0.00000000000000D+00
   2   4   1   4  0.22721346329150D+02  0.00000000000000D+00
   3   4   1   4  0.22721346329150D+02  0.00000000000000D+00
   1   5   1   4 -0.23836174342968D-06  0.00000000000000D+00
   2   5   1   4 -0.23884428517861D-06  0.00000000000000D+00
   3   5   1   4 -0.25732347062595D-06  0.00000000000000D+00
   1   6   1   4  0.42545338538029D-08  0.00000000000000D+00
   2   6   1   4 -0.24520077273847D-07  0.00000000000000D+00
   3   6   1   4  0.89015034436147D-08  0.00000000000000D+00
   1   1   2   4 -0.41983050130476D-07  0.00000000000000D+00
   2   1   2   4 -0.12483325824239D+02  0.00000000000000D+00
   3   1   2   4 -0.13196985933236D-08  0.00000000000000D+00
   1   2   2   4 -0.62867983606118D-09  0.00000000000000D+00
   2   2   2   4 -0.12765389704225D+02  0.00000000000000D+00
   3   2   2   4  0.70072237700564D-09  0.00000000000000D+00
   1   4   2   4  0.22721346329150D+02  0.00000000000000D+00
   2   4   2   4 -0.68164038987451D+02  0.00000000000000D+00
   3   4   2   4  0.22721346329150D+02  0.00000000000000D+00
   1   1   3   4 -0.16029780831098D-07  0.00000000000000D+00
   2   1   3   4  0.40484706834439D-07  0.00000000000000D+00
   3   1   3   4 -0.12483325724758D+02  0.00000000000000D+00
   1   2   3   4  0.11775554523524D-08  0.00000000000000D+00
   2   2   3   4  0.13310296913940D-08  0.00000000000000D+00
   3   2   3   4 -0.12765389704139D+02  0.00000000000000D+00
   1   4   3   4  0.22721346329150D+02  0.00000000000000D+00
   2   4   3   4  0.22721346329150D+02  0.00000000000000D+00
   3   4   3   4 -0.68164038987451D+02  0.00000000000000D+00
  
 2nd derivatives (non-stat.)  - # elements :      36
 qpt  2.50000000E-01  0.00000000E+00  0.00000000E+00   1.0
   1   1   1   1  0.11719065391890D+01 -0.26129564762261D-05
   2   1   1   1  0.22807245730060D+00 -0.32710634173299D-16
   3   1   1   1  0.22807245730058D+00 -0.86605587684236D-16
   1   2   1   1 -0.42628226719014D+00 -0.42628334249011D+00
   2   2   1   1 -0.95632248823040D-01 -0.95632160167860D-01
   3   2   1   1 -0.95632248823041D-01 -0.95632160167861D-01
   1   1   2   1  0.22807245730063D+00 -0.32710493001141D-16
   2   1   2   1  0.45614491460123D+00 -0.69652876089108D-17
   3   1   2   1  0.22807245730057D+00  0.69080276449600D-17
   1   2   2   1 -0.95632248823040D-01 -0.95632160167860D-01
   2   2   2   1 -0.19126449764608D+00 -0.19126432033572D+00
   3   2   2   1 -0.95632248823040D-01 -0.95632160167861D-01
   1   1   3   1  0.22807245730058D+00 -0.86605587684236D-16
   2   1   3   1  0.22807245730058D+00  0.69080276449600D-17
   3   1   3   1  0.45614491460111D+00 -0.44082124539780D-17
   1   2   3   1 -0.95632248823041D-01 -0.95632160167861D-01
   2   2   3   1 -0.95632248823040D-01 -0.95632160167861D-01
   3   2   3   1 -0.19126449764608D+00 -0.19126432033572D+00
   1   1   1   2 -0.42628242301060D+00  0.42628359415364D+00
   2   1   1   2 -0.95632220059381D-01  0.95632203973955D-01
   3   1   1   2 -0.95632220059382D-01  0.95632203973956D-01
   1   2   1   2  0.93407170976351D+00 -0.26569481915017D-06
   2   2   1   2  0.27239044211981D+00 -0.36345149081443D-17
   3   2   1   2  0.27239044211980D+00 -0.96228430760262D-17
   1   1   2   2 -0.95632220059381D-01  0.95632203973955D-01
   2   1   2   2 -0.19126444011876D+00  0.19126440794791D+00
   3   1   2   2 -0.95632220059381D-01  0.95632203973956D-01
   1   2   2   2  0.27239044211980D+00 -0.36344266755457D-17
   2   2   2   2  0.54478088423962D+00 -0.77392084543453D-18
   3   2   2   2  0.27239044211980D+00  0.76755862721777D-18
   1   1   3   2 -0.95632220059382D-01  0.95632203973956D-01
   2   1   3   2 -0.95632220059381D-01  0.95632203973956D-01
   3   1   3   2 -0.19126444011876D+00  0.19126440794791D+00
   1   2   3   2  0.27239044211980D+00 -0.96227724899472D-17
   2   2   3   2  0.27239044211980D+00  0.76755862721777D-18
   3   2   3   2  0.54478088423961D+00 -0.48980138377534D-18
  
 2nd derivatives (non-stat.)  - # elements :      36
 qpt  5.00000000E-01  0.00000000E+00  0.00000000E+00   1.0
   1   1   1   1  0.15009731903907D+01 -0.10253428002154D-05
   2   1   1   1  0.28286865239552D+00  0.00000000000000D+00
   3   1   1   1  0.28286865239554D+00  0.00000000000000D+00
   1   2   1   1  0.38296903827974D-15 -0.31067328554903D-15
   2   2   1   1  0.14998560353305D-16 -0.90576336169356D-16
   3   2   1   1  0.18982746503185D-15 -0.98819103784458D-16
   1   1   2   1  0.28286865239548D+00  0.00000000000000D+00
   2   1   2   1  0.56573730479104D+00  0.00000000000000D+00
   3   1   2   1  0.28286865239554D+00  0.00000000000000D+00
   1   2   2   1  0.14998560353305D-16 -0.90576333412088D-16
   2   2   2   1  0.12081128311756D-15 -0.19416154436904D-15
   3   2   2   1  0.18980531269355D-16 -0.98198648522522D-16
   1   1   3   1  0.28286865239552D+00  0.00000000000000D+00
   2   1   3   1  0.28286865239552D+00  0.00000000000000D+00
   3   1   3   1  0.56573730479104D+00  0.00000000000000D+00
   1   2   3   1  0.18982746944348D-15 -0.98819099372828D-16
   2   2   3   1  0.18980531269355D-16 -0.98198649625429D-16
   3   2   3   1  0.48888380465749D-17 -0.19292608125853D-15
   1   1   1   2  0.38296902063322D-15  0.31067329547519D-15
   2   1   1   2  0.14998560353305D-16  0.90576338375171D-16
   3   1   1   2  0.18982746944348D-15  0.98819102681550D-16
   1   2   1   2  0.99568235244239D+00 -0.13684523118700D-06
   2   2   1   2  0.32997827366459D+00  0.00000000000000D+00
   3   2   1   2  0.32997827366459D+00  0.00000000000000D+00
   1   1   2   2  0.14998551530045D-16  0.90576341132440D-16
   2   1   2   2  0.12081129194082D-15  0.19416154878067D-15
   3   1   2   2  0.18980535680985D-16  0.98198651831244D-16
   1   2   2   2  0.32997827366459D+00  0.00000000000000D+00
   2   2   2   2  0.65995654732919D+00  0.00000000000000D+00
   3   2   2   2  0.32997827366459D+00  0.00000000000000D+00
   1   1   3   2  0.18982746062022D-15  0.98819105990273D-16
   2   1   3   2  0.18980537611073D-16  0.98198650728337D-16
   3   1   3   2  0.48888465941079D-17  0.19292608456725D-15
   1   2   3   2  0.32997827366460D+00  0.00000000000000D+00
   2   2   3   2  0.32997827366460D+00  0.00000000000000D+00
   3   2   3   2  0.65995654732920D+00  0.00000000000000D+00
  
 2nd derivatives (non-stat.)  - # elements :      36
 qpt  2.50000000E-01  2.50000000E-01  0.00000000E+00   1.0
   1   1   1   1  0.87333999175297D+00 -0.25810446356716D-16
   2   1   1   1  0.59664946251493D+00 -0.10156997298345D-15
   3   1   1   1  0.27669052923794D+00 -0.17923128646304D-15
   1   2   1   1  0.13993869741075D-06 -0.41204549392085D+00
   2   2   1   1  0.13993869748974D-06 -0.30588951886612D+00
   3   2   1   1 -0.43816674660320D-17 -0.10615597505473D+00
   1   1   2   1  0.59664946251495D+00 -0.10156997298345D-15
   2   1   2   1  0.87333999175297D+00 -0.34728759102609D-16
   3   1   2   1  0.27669052923798D+00 -0.15531287404252D-15
   1   2   2   1  0.13993869748974D-06 -0.30588951886613D+00
   2   2   2   1  0.13993869750828D-06 -0.41204549392084D+00
   3   2   2   1  0.10214090931357D-16 -0.10615597505473D+00
   1   1   3   1  0.27669052923795D+00 -0.17923128646304D-15
   2   1   3   1  0.27669052923795D+00 -0.15531287404252D-15
   3   1   3   1  0.55338105847591D+00  0.12826146446043D-16
   1   2   3   1 -0.43816625029484D-17 -0.10615597505473D+00
   2   2   3   1  0.10214090931357D-16 -0.10615597505473D+00
   3   2   3   1 -0.85909453561527D-16 -0.21231195010945D+00
   1   1   1   2  0.13215417515661D-06  0.41204562545208D+00
   2   1   1   2  0.13215417523560D-06  0.30588956270987D+00
   3   1   1   2 -0.43816625029484D-17  0.10615606274221D+00
   1   2   1   2  0.83067607903171D+00 -0.28678273729685D-17
   2   2   1   2  0.56011005820666D+00 -0.11285554208078D-16
   3   2   1   2  0.27056602082504D+00 -0.19914587384782D-16
   1   1   2   2  0.13215417523560D-06  0.30588956270987D+00
   2   1   2   2  0.13215417525414D-06  0.41204562545208D+00
   3   1   2   2  0.10214082659550D-16  0.10615606274221D+00
   1   2   2   2  0.56011005820666D+00 -0.11285554208078D-16
   2   2   2   2  0.83067607903171D+00 -0.38587510114010D-17
   3   2   2   2  0.27056602082504D+00 -0.17256986004725D-16
   1   1   3   2 -0.43816790465606D-17  0.10615606274221D+00
   2   1   3   2  0.10214077696467D-16  0.10615606274221D+00
   3   1   3   2 -0.85909466796417D-16  0.21231212548443D+00
   1   2   3   2  0.27056602082504D+00 -0.19914585730421D-16
   2   2   3   2  0.27056602082504D+00 -0.17256984350363D-16
   3   2   3   2  0.54113204165009D+00  0.14251273828936D-17
  
 2nd derivatives (non-stat.)  - # elements :      36
 qpt  5.00000000E-01  2.50000000E-01  0.00000000E+00   1.0
   1   1   1   1  0.12366939024637D+01 -0.29631839241619D-05
   2   1   1   1  0.46377972278367D+00 -0.88092709247281D-07
   3   1   1   1  0.33139561867121D+00 -0.20832416805330D-16
   1   2   1   1  0.11643802040564D+00 -0.11643869044748D+00
   2   2   1   1  0.73028084378301D-01 -0.73027144694205D-01
   3   2   1   1  0.24935898944504D-01 -0.24935907889362D-01
   1   1   2   1  0.46378017951277D+00  0.36194184072993D-05
   2   1   2   1  0.79018096028693D+00  0.12490899615704D-05
   3   1   2   1  0.33139561867118D+00 -0.56334892733419D-16
   1   2   2   1  0.37341586026679D-01 -0.37341546796275D-01
   2   2   2   1  0.70012305512337D-01 -0.70011780356958D-01
   3   2   2   1  0.24935898944503D-01 -0.24935907889363D-01
   1   1   3   1  0.33139561867121D+00 -0.20832416805330D-16
   2   1   3   1  0.33139561867118D+00 -0.56334892733419D-16
   3   1   3   1  0.66279123734256D+00 -0.13155988552996D-16
   1   2   3   1  0.24935898944504D-01 -0.24935907889362D-01
   2   2   3   1  0.24935898944503D-01 -0.24935907889363D-01
   3   2   3   1  0.49871797889004D-01 -0.49871815778724D-01
   1   1   1   2  0.11643816609893D+00  0.11643871308215D+00
   2   1   1   2  0.37341589002234D-01  0.37341666355925D-01
   3   1   1   2  0.24935940119644D-01  0.24935975514205D-01
   1   2   1   2  0.97246192203684D+00  0.19560603039219D-07
   2   2   1   2  0.44653591177268D+00 -0.70049051739862D-06
   3   2   1   2  0.34003038413590D+00 -0.23147129783700D-17
   1   1   2   2  0.73028135753906D-01  0.73027313445930D-01
   2   1   2   2  0.70012314159567D-01  0.70011706005074D-01
   3   1   2   2  0.24935940119643D-01  0.24935975514206D-01
   1   2   2   2  0.44653589184642D+00  0.65757846452693D-06
   2   2   2   2  0.78759605085353D+00  0.53280605348844D-09
   3   2   2   2  0.34003038413590D+00 -0.62594325259354D-17
   1   1   3   2  0.24935940119644D-01  0.24935975514205D-01
   2   1   3   2  0.24935940119643D-01  0.24935975514206D-01
   3   1   3   2  0.49871880239284D-01  0.49871951028410D-01
   1   2   3   2  0.34003038413590D+00 -0.23147129783700D-17
   2   2   3   2  0.34003038413590D+00 -0.62594325259354D-17
   3   2   3   2  0.68006076827181D+00 -0.14617765058885D-17
  
 2nd derivatives (non-stat.)  - # elements :      36
 qpt -2.50000000E-01  2.50000000E-01  0.00000000E+00   1.0
   1   1   1   1  0.91216303389723D+00  0.93008421464978D-06
   2   1   1   1  0.15948074737918D+00 -0.93008421463422D-06
   3   1   1   1  0.27863141264180D+00 -0.22661164310410D-16
   1   2   1   1 -0.17895189380891D+00 -0.25991176864542D-06
   2   2   1   1 -0.26430788651370D-02 -0.85716577630425D-07
   3   2   1   1 -0.80323575087746D-01 -0.24185935855150D-06
   1   1   2   1  0.15948074737921D+00 -0.93008421463422D-06
   2   1   2   1  0.91216303389729D+00  0.93008421473447D-06
   3   1   2   1  0.27863141264183D+00 -0.39587025103975D-16
   1   2   2   1 -0.26430788651362D-02 -0.85716577630425D-07
   2   2   2   1 -0.17895189380890D+00 -0.25991176868947D-06
   3   2   2   1 -0.80323575087746D-01 -0.24185935837312D-06
   1   1   3   1  0.27863141264179D+00 -0.22660952552173D-16
   2   1   3   1  0.27863141264180D+00 -0.39587025103975D-16
   3   1   3   1  0.55726282528363D+00 -0.13420792294491D-16
   1   2   3   1 -0.80323575087746D-01 -0.24185935855150D-06
   2   2   3   1 -0.80323575087746D-01 -0.24185935837312D-06
   3   2   3   1 -0.16064715017549D+00 -0.48371871672015D-06
   1   1   1   2 -0.17895124600118D+00  0.12400295934189D-07
   2   1   1   2 -0.26428746602263D-02  0.33250371288970D-06
   3   1   1   2 -0.80323556361563D-01  0.24113502109955D-06
   1   2   1   2  0.79977653973311D+00  0.29751575079839D-06
   2   2   1   2  0.25303810930100D+00 -0.29751575079667D-06
   3   2   1   2  0.32886254958450D+00 -0.25178836169081D-17
   1   1   2   2 -0.26428746602263D-02  0.33250371288970D-06
   2   1   2   2 -0.17895124600118D+00  0.12400295978233D-07
   3   1   2   2 -0.80323556361563D-01  0.24113502092117D-06
   1   2   2   2  0.25303810930100D+00 -0.29751575079667D-06
   2   2   2   2  0.79977653973310D+00  0.29751575080780D-06
   3   2   2   2  0.32886254958450D+00 -0.43985583448861D-17
   1   1   3   2 -0.80323556361563D-01  0.24113502109955D-06
   2   1   3   2 -0.80323556361563D-01  0.24113502092117D-06
   3   1   3   2 -0.16064711272313D+00  0.48227004181623D-06
   1   2   3   2  0.32886254958450D+00 -0.25178836169081D-17
   2   2   3   2  0.32886254958450D+00 -0.43985583448861D-17
   3   2   3   2  0.65772509916900D+00 -0.14911991438323D-17
  
 2nd derivatives (non-stat.)  - # elements :      36
 qpt  5.00000000E-01  5.00000000E-01  0.00000000E+00   1.0
   1   1   1   1  0.10302431045226D+01  0.00000000000000D+00
   2   1   1   1  0.64778439641462D+00  0.00000000000000D+00
   3   1   1   1  0.38245870810802D+00  0.00000000000000D+00
   1   2   1   1  0.13516444840477D+00  0.37750061451733D-06
   2   2   1   1  0.77483883736148D-01  0.47695067310484D-06
   3   2   1   1  0.57680564668641D-01 -0.99450058587512D-07
   1   1   2   1  0.64778439641461D+00  0.00000000000000D+00
   2   1   2   1  0.10302431045227D+01  0.00000000000000D+00
   3   1   2   1  0.38245870810803D+00  0.00000000000000D+00
   1   2   2   1  0.77483883736148D-01  0.47695067310484D-06
   2   2   2   1  0.13516444840478D+00  0.37750061451733D-06
   3   2   2   1  0.57680564668641D-01 -0.99450058587512D-07
   1   1   3   1  0.38245870810800D+00  0.00000000000000D+00
   2   1   3   1  0.38245870810803D+00  0.00000000000000D+00
   3   1   3   1  0.76491741621606D+00  0.00000000000000D+00
   1   2   3   1  0.57680564668641D-01 -0.99450058587512D-07
   2   2   3   1  0.57680564668641D-01 -0.99450058587512D-07
   3   2   3   1  0.11536112933729D+00 -0.19890011717502D-06
   1   1   1   2  0.13516465820603D+00 -0.34647137854732D-06
   2   1   1   2  0.77483953669899D-01 -0.46660759444817D-06
   3   1   1   2  0.57680704536146D-01  0.12013621590085D-06
   1   2   1   2  0.90316736867406D+00  0.00000000000000D+00
   2   2   1   2  0.54659790277651D+00  0.00000000000000D+00
   3   2   1   2  0.35656946589754D+00  0.00000000000000D+00
   1   1   2   2  0.77483953669900D-01 -0.46660759444817D-06
   2   1   2   2  0.13516465820603D+00 -0.34647137854732D-06
   3   1   2   2  0.57680704536147D-01  0.12013621590085D-06
   1   2   2   2  0.54659790277651D+00  0.00000000000000D+00
   2   2   2   2  0.90316736867404D+00  0.00000000000000D+00
   3   2   2   2  0.35656946589754D+00  0.00000000000000D+00
   1   1   3   2  0.57680704536147D-01  0.12013621590085D-06
   2   1   3   2  0.57680704536146D-01  0.12013621590085D-06
   3   1   3   2  0.11536140907230D+00  0.24027243180171D-06
   1   2   3   2  0.35656946589754D+00  0.00000000000000D+00
   2   2   3   2  0.35656946589754D+00  0.00000000000000D+00
   3   2   3   2  0.71313893179507D+00  0.00000000000000D+00
  
 2nd derivatives (non-stat.)  - # elements :      36
 qpt -2.50000000E-01  5.00000000E-01  2.50000000E-01   1.0
   1   1   1   1  0.97237250468757D+00  0.23087036668828D-05
   2   1   1   1  0.51648338908777D+00  0.76956788893200D-06
   3   1   1   1  0.45588911559987D+00  0.15391357779304D-05
   1   2   1   1  0.16932187064912D-06  0.98988649435912D-02
   2   2   1   1  0.16932187050951D-06  0.98988649435914D-02
   3   2   1   1 -0.17765144678709D-15 -0.45664758201422D-15
   1   1   2   1  0.51648338908774D+00  0.76956788893200D-06
   2   1   2   1  0.10329667781756D+01  0.15391357779293D-05
   3   1   2   1  0.51648338908772D+00  0.76956788901438D-06
   1   2   2   1  0.16932187050951D-06  0.98988649435920D-02
   2   2   2   1 -0.18863504904167D-15 -0.82719195449177D-17
   3   2   2   1 -0.16932187101215D-06 -0.98988649435927D-02
   1   1   3   1  0.45588911559985D+00  0.15391357779304D-05
   2   1   3   1  0.51648338908778D+00  0.76956788901438D-06
   3   1   3   1  0.97237250468757D+00  0.23087036670483D-05
   1   2   3   1 -0.17765153281387D-15 -0.45664759028603D-15
   2   2   3   1 -0.16932187101215D-06 -0.98988649435923D-02
   3   2   3   1 -0.16932187107853D-06 -0.98988649435909D-02
   1   1   1   2  0.12842470476999D-06 -0.98988742969546D-02
   2   1   1   2  0.12842470463038D-06 -0.98988742969550D-02
   3   1   1   2 -0.17765147325687D-15  0.45664756381625D-15
   1   2   1   2  0.85977934095853D+00 -0.35145855449636D-07
   2   2   1   2  0.45371863517679D+00 -0.11715285153095D-07
   3   2   1   2  0.40606070578174D+00 -0.23430570298816D-07
   1   1   2   2  0.12842470463038D-06 -0.98988742969548D-02
   2   1   2   2 -0.18863511521612D-15  0.82719195449177D-17
   3   1   2   2 -0.12842470513303D-06  0.98988742969557D-02
   1   2   2   2  0.45371863517679D+00 -0.11715285153095D-07
   2   2   2   2  0.90743727035358D+00 -0.23430570298934D-07
   3   2   2   2  0.45371863517680D+00 -0.11715285143941D-07
   1   1   3   2 -0.17765149972665D-15  0.45664759028603D-15
   2   1   3   2 -0.12842470513303D-06  0.98988742969564D-02
   3   1   3   2 -0.12842470519940D-06  0.98988742969544D-02
   1   2   3   2  0.40606070578174D+00 -0.23430570298816D-07
   2   2   3   2  0.45371863517680D+00 -0.11715285143941D-07
   3   2   3   2  0.85977934095854D+00 -0.35145855431251D-07

 List of bloks and their characteristics 
  
 Total energy                 - # elements :       1
  
 1st derivatives              - # elements :      12
  
 2nd derivatives (non-stat.)  - # elements :      87
 qpt  0.00000000E+00  0.00000000E+00  0.00000000E+00   1.0
  
 2nd derivatives (non-stat.)  - # elements :      36
 qpt  2.50000000E-01  0.00000000E+00  0.00000000E+00   1.0
  
 2nd derivatives (non-stat.)  - # elements :      36
 qpt  5.00000000E-01  0.00000000E+00  0.00000000E+00   1.0
  
 2nd derivatives (non-stat.)  - # elements :      36
 qpt  2.50000000E-01  2.50000000E-01  0.00000000E+00   1.0
  
 2nd derivatives (non-stat.)  - # elements :      36
 qpt  5.00000000E-01  2.50000000E-01  0.00000000E+00   1.0
  
 2nd derivatives (non-stat.)  - # elements :      36
 qpt -2.50000000E-01  2.50000000E-01  0.00000000E+00   1.0
  
 2nd derivatives (non-stat.)  - # elements :      36
 qpt  5.00000000E-01  5.00000000E-01  0.00000000E+00   1.0
  
 2nd derivatives (non-stat.)  - # elements :      36
 qpt -2.50000000E-01  5.00000000E-01  2.50000000E-01   1.0
