
 **** DERIVATIVE DATABASE ****    
+DDB, Version number    100401

 si phonons on 6 6 6 mesh

    usepaw         1
     natom         2
      nkpt      4096
    nsppol         1
      nsym        48
    ntypat         1
    occopt         7
     nband        10
     acell  0.51037156479136D+01  0.51037156479136D+01  0.51037156479136D+01
       amu  0.28085500000000D+02
   dilatmx  0.10000000000000D+01
      ecut  0.16537196429083D+02
 pawecutdg  0.33074392858166D+02
    ecutsm  0.00000000000000D+00
     intxc         0
      iscf         7
       ixc     -1012
       kpt  0.00000000000000D+00  0.00000000000000D+00  0.00000000000000D+00
            0.62500000000000D-01  0.00000000000000D+00  0.00000000000000D+00
            0.12500000000000D+00  0.00000000000000D+00  0.00000000000000D+00
            0.18750000000000D+00  0.00000000000000D+00  0.00000000000000D+00
            0.25000000000000D+00  0.00000000000000D+00  0.00000000000000D+00
            0.31250000000000D+00  0.00000000000000D+00  0.00000000000000D+00
            0.37500000000000D+00  0.00000000000000D+00  0.00000000000000D+00
            0.43750000000000D+00  0.00000000000000D+00  0.00000000000000D+00
            0.50000000000000D+00  0.00000000000000D+00  0.00000000000000D+00
           -0.43750000000000D+00  0.00000000000000D+00  0.00000000000000D+00
           -0.37500000000000D+00  0.00000000000000D+00  0.00000000000000D+00
           -0.31250000000000D+00  0.00000000000000D+00  0.00000000000000D+00
           -0.25000000000000D+00  0.00000000000000D+00  0.00000000000000D+00
           -0.18750000000000D+00  0.00000000000000D+00  0.00000000000000D+00
           -0.12500000000000D+00  0.00000000000000D+00  0.00000000000000D+00
           -0.62500000000000D-01  0.00000000000000D+00  0.00000000000000D+00
            0.00000000000000D+00  0.62500000000000D-01  0.00000000000000D+00
            0.62500000000000D-01  0.62500000000000D-01  0.00000000000000D+00
            0.12500000000000D+00  0.62500000000000D-01  0.00000000000000D+00
            0.18750000000000D+00  0.62500000000000D-01  0.00000000000000D+00
            0.25000000000000D+00  0.62500000000000D-01  0.00000000000000D+00
            0.31250000000000D+00  0.62500000000000D-01  0.00000000000000D+00
            0.37500000000000D+00  0.62500000000000D-01  0.00000000000000D+00
            0.43750000000000D+00  0.62500000000000D-01  0.00000000000000D+00
            0.50000000000000D+00  0.62500000000000D-01  0.00000000000000D+00
           -0.43750000000000D+00  0.62500000000000D-01  0.00000000000000D+00
           -0.37500000000000D+00  0.62500000000000D-01  0.00000000000000D+00
           -0.31250000000000D+00  0.62500000000000D-01  0.00000000000000D+00
           -0.25000000000000D+00  0.62500000000000D-01  0.00000000000000D+00
           -0.18750000000000D+00  0.62500000000000D-01  0.00000000000000D+00
           -0.12500000000000D+00  0.62500000000000D-01  0.00000000000000D+00
           -0.62500000000000D-01  0.62500000000000D-01  0.00000000000000D+00
            0.00000000000000D+00  0.12500000000000D+00  0.00000000000000D+00
            0.62500000000000D-01  0.12500000000000D+00  0.00000000000000D+00
            0.12500000000000D+00  0.12500000000000D+00  0.00000000000000D+00
            0.18750000000000D+00  0.12500000000000D+00  0.00000000000000D+00
            0.25000000000000D+00  0.12500000000000D+00  0.00000000000000D+00
            0.31250000000000D+00  0.12500000000000D+00  0.00000000000000D+00
            0.37500000000000D+00  0.12500000000000D+00  0.00000000000000D+00
            0.43750000000000D+00  0.12500000000000D+00  0.00000000000000D+00
            0.50000000000000D+00  0.12500000000000D+00  0.00000000000000D+00
           -0.43750000000000D+00  0.12500000000000D+00  0.00000000000000D+00
           -0.37500000000000D+00  0.12500000000000D+00  0.00000000000000D+00
           -0.31250000000000D+00  0.12500000000000D+00  0.00000000000000D+00
           -0.25000000000000D+00  0.12500000000000D+00  0.00000000000000D+00
           -0.18750000000000D+00  0.12500000000000D+00  0.00000000000000D+00
           -0.12500000000000D+00  0.12500000000000D+00  0.00000000000000D+00
           -0.62500000000000D-01  0.12500000000000D+00  0.00000000000000D+00
            0.00000000000000D+00  0.18750000000000D+00  0.00000000000000D+00
            0.62500000000000D-01  0.18750000000000D+00  0.00000000000000D+00
            0.12500000000000D+00  0.18750000000000D+00  0.00000000000000D+00
            0.18750000000000D+00  0.18750000000000D+00  0.00000000000000D+00
            0.25000000000000D+00  0.18750000000000D+00  0.00000000000000D+00
            0.31250000000000D+00  0.18750000000000D+00  0.00000000000000D+00
            0.37500000000000D+00  0.18750000000000D+00  0.00000000000000D+00
            0.43750000000000D+00  0.18750000000000D+00  0.00000000000000D+00
            0.50000000000000D+00  0.18750000000000D+00  0.00000000000000D+00
           -0.43750000000000D+00  0.18750000000000D+00  0.00000000000000D+00
           -0.37500000000000D+00  0.18750000000000D+00  0.00000000000000D+00
           -0.31250000000000D+00  0.18750000000000D+00  0.00000000000000D+00
           -0.25000000000000D+00  0.18750000000000D+00  0.00000000000000D+00
           -0.18750000000000D+00  0.18750000000000D+00  0.00000000000000D+00
           -0.12500000000000D+00  0.18750000000000D+00  0.00000000000000D+00
           -0.62500000000000D-01  0.18750000000000D+00  0.00000000000000D+00
            0.00000000000000D+00  0.25000000000000D+00  0.00000000000000D+00
            0.62500000000000D-01  0.25000000000000D+00  0.00000000000000D+00
            0.12500000000000D+00  0.25000000000000D+00  0.00000000000000D+00
            0.18750000000000D+00  0.25000000000000D+00  0.00000000000000D+00
            0.25000000000000D+00  0.25000000000000D+00  0.00000000000000D+00
            0.31250000000000D+00  0.25000000000000D+00  0.00000000000000D+00
            0.37500000000000D+00  0.25000000000000D+00  0.00000000000000D+00
            0.43750000000000D+00  0.25000000000000D+00  0.00000000000000D+00
            0.50000000000000D+00  0.25000000000000D+00  0.00000000000000D+00
           -0.43750000000000D+00  0.25000000000000D+00  0.00000000000000D+00
           -0.37500000000000D+00  0.25000000000000D+00  0.00000000000000D+00
           -0.31250000000000D+00  0.25000000000000D+00  0.00000000000000D+00
           -0.25000000000000D+00  0.25000000000000D+00  0.00000000000000D+00
           -0.18750000000000D+00  0.25000000000000D+00  0.00000000000000D+00
           -0.12500000000000D+00  0.25000000000000D+00  0.00000000000000D+00
           -0.62500000000000D-01  0.25000000000000D+00  0.00000000000000D+00
            0.00000000000000D+00  0.31250000000000D+00  0.00000000000000D+00
            0.62500000000000D-01  0.31250000000000D+00  0.00000000000000D+00
            0.12500000000000D+00  0.31250000000000D+00  0.00000000000000D+00
            0.18750000000000D+00  0.31250000000000D+00  0.00000000000000D+00
            0.25000000000000D+00  0.31250000000000D+00  0.00000000000000D+00
            0.31250000000000D+00  0.31250000000000D+00  0.00000000000000D+00
            0.37500000000000D+00  0.31250000000000D+00  0.00000000000000D+00
            0.43750000000000D+00  0.31250000000000D+00  0.00000000000000D+00
            0.50000000000000D+00  0.31250000000000D+00  0.00000000000000D+00
           -0.43750000000000D+00  0.31250000000000D+00  0.00000000000000D+00
           -0.37500000000000D+00  0.31250000000000D+00  0.00000000000000D+00
           -0.31250000000000D+00  0.31250000000000D+00  0.00000000000000D+00
           -0.25000000000000D+00  0.31250000000000D+00  0.00000000000000D+00
           -0.18750000000000D+00  0.31250000000000D+00  0.00000000000000D+00
           -0.12500000000000D+00  0.31250000000000D+00  0.00000000000000D+00
           -0.62500000000000D-01  0.31250000000000D+00  0.00000000000000D+00
            0.00000000000000D+00  0.37500000000000D+00  0.00000000000000D+00
            0.62500000000000D-01  0.37500000000000D+00  0.00000000000000D+00
            0.12500000000000D+00  0.37500000000000D+00  0.00000000000000D+00
            0.18750000000000D+00  0.37500000000000D+00  0.00000000000000D+00
            0.25000000000000D+00  0.37500000000000D+00  0.00000000000000D+00
            0.31250000000000D+00  0.37500000000000D+00  0.00000000000000D+00
            0.37500000000000D+00  0.37500000000000D+00  0.00000000000000D+00
            0.43750000000000D+00  0.37500000000000D+00  0.00000000000000D+00
            0.50000000000000D+00  0.37500000000000D+00  0.00000000000000D+00
           -0.43750000000000D+00  0.37500000000000D+00  0.00000000000000D+00
           -0.37500000000000D+00  0.37500000000000D+00  0.00000000000000D+00
           -0.31250000000000D+00  0.37500000000000D+00  0.00000000000000D+00
           -0.25000000000000D+00  0.37500000000000D+00  0.00000000000000D+00
           -0.18750000000000D+00  0.37500000000000D+00  0.00000000000000D+00
           -0.12500000000000D+00  0.37500000000000D+00  0.00000000000000D+00
           -0.62500000000000D-01  0.37500000000000D+00  0.00000000000000D+00
            0.00000000000000D+00  0.43750000000000D+00  0.00000000000000D+00
            0.62500000000000D-01  0.43750000000000D+00  0.00000000000000D+00
            0.12500000000000D+00  0.43750000000000D+00  0.00000000000000D+00
            0.18750000000000D+00  0.43750000000000D+00  0.00000000000000D+00
            0.25000000000000D+00  0.43750000000000D+00  0.00000000000000D+00
            0.31250000000000D+00  0.43750000000000D+00  0.00000000000000D+00
            0.37500000000000D+00  0.43750000000000D+00  0.00000000000000D+00
            0.43750000000000D+00  0.43750000000000D+00  0.00000000000000D+00
            0.50000000000000D+00  0.43750000000000D+00  0.00000000000000D+00
           -0.43750000000000D+00  0.43750000000000D+00  0.00000000000000D+00
           -0.37500000000000D+00  0.43750000000000D+00  0.00000000000000D+00
           -0.31250000000000D+00  0.43750000000000D+00  0.00000000000000D+00
           -0.25000000000000D+00  0.43750000000000D+00  0.00000000000000D+00
           -0.18750000000000D+00  0.43750000000000D+00  0.00000000000000D+00
           -0.12500000000000D+00  0.43750000000000D+00  0.00000000000000D+00
           -0.62500000000000D-01  0.43750000000000D+00  0.00000000000000D+00
            0.00000000000000D+00  0.50000000000000D+00  0.00000000000000D+00
            0.62500000000000D-01  0.50000000000000D+00  0.00000000000000D+00
            0.12500000000000D+00  0.50000000000000D+00  0.00000000000000D+00
            0.18750000000000D+00  0.50000000000000D+00  0.00000000000000D+00
            0.25000000000000D+00  0.50000000000000D+00  0.00000000000000D+00
            0.31250000000000D+00  0.50000000000000D+00  0.00000000000000D+00
            0.37500000000000D+00  0.50000000000000D+00  0.00000000000000D+00
            0.43750000000000D+00  0.50000000000000D+00  0.00000000000000D+00
            0.50000000000000D+00  0.50000000000000D+00  0.00000000000000D+00
           -0.43750000000000D+00  0.50000000000000D+00  0.00000000000000D+00
           -0.37500000000000D+00  0.50000000000000D+00  0.00000000000000D+00
           -0.31250000000000D+00  0.50000000000000D+00  0.00000000000000D+00
           -0.25000000000000D+00  0.50000000000000D+00  0.00000000000000D+00
           -0.18750000000000D+00  0.50000000000000D+00  0.00000000000000D+00
           -0.12500000000000D+00  0.50000000000000D+00  0.00000000000000D+00
           -0.62500000000000D-01  0.50000000000000D+00  0.00000000000000D+00
            0.00000000000000D+00 -0.43750000000000D+00  0.00000000000000D+00
            0.62500000000000D-01 -0.43750000000000D+00  0.00000000000000D+00
            0.12500000000000D+00 -0.43750000000000D+00  0.00000000000000D+00
            0.18750000000000D+00 -0.43750000000000D+00  0.00000000000000D+00
            0.25000000000000D+00 -0.43750000000000D+00  0.00000000000000D+00
            0.31250000000000D+00 -0.43750000000000D+00  0.00000000000000D+00
            0.37500000000000D+00 -0.43750000000000D+00  0.00000000000000D+00
            0.43750000000000D+00 -0.43750000000000D+00  0.00000000000000D+00
            0.50000000000000D+00 -0.43750000000000D+00  0.00000000000000D+00
           -0.43750000000000D+00 -0.43750000000000D+00  0.00000000000000D+00
           -0.37500000000000D+00 -0.43750000000000D+00  0.00000000000000D+00
           -0.31250000000000D+00 -0.43750000000000D+00  0.00000000000000D+00
           -0.25000000000000D+00 -0.43750000000000D+00  0.00000000000000D+00
           -0.18750000000000D+00 -0.43750000000000D+00  0.00000000000000D+00
           -0.12500000000000D+00 -0.43750000000000D+00  0.00000000000000D+00
           -0.62500000000000D-01 -0.43750000000000D+00  0.00000000000000D+00
            0.00000000000000D+00 -0.37500000000000D+00  0.00000000000000D+00
            0.62500000000000D-01 -0.37500000000000D+00  0.00000000000000D+00
            0.12500000000000D+00 -0.37500000000000D+00  0.00000000000000D+00
            0.18750000000000D+00 -0.37500000000000D+00  0.00000000000000D+00
            0.25000000000000D+00 -0.37500000000000D+00  0.00000000000000D+00
            0.31250000000000D+00 -0.37500000000000D+00  0.00000000000000D+00
            0.37500000000000D+00 -0.37500000000000D+00  0.00000000000000D+00
            0.43750000000000D+00 -0.37500000000000D+00  0.00000000000000D+00
            0.50000000000000D+00 -0.37500000000000D+00  0.00000000000000D+00
           -0.43750000000000D+00 -0.37500000000000D+00  0.00000000000000D+00
           -0.37500000000000D+00 -0.37500000000000D+00  0.00000000000000D+00
           -0.31250000000000D+00 -0.37500000000000D+00  0.00000000000000D+00
           -0.25000000000000D+00 -0.37500000000000D+00  0.00000000000000D+00
           -0.18750000000000D+00 -0.37500000000000D+00  0.00000000000000D+00
           -0.12500000000000D+00 -0.37500000000000D+00  0.00000000000000D+00
           -0.62500000000000D-01 -0.37500000000000D+00  0.00000000000000D+00
            0.00000000000000D+00 -0.31250000000000D+00  0.00000000000000D+00
            0.62500000000000D-01 -0.31250000000000D+00  0.00000000000000D+00
            0.12500000000000D+00 -0.31250000000000D+00  0.00000000000000D+00
            0.18750000000000D+00 -0.31250000000000D+00  0.00000000000000D+00
            0.25000000000000D+00 -0.31250000000000D+00  0.00000000000000D+00
            0.31250000000000D+00 -0.31250000000000D+00  0.00000000000000D+00
            0.37500000000000D+00 -0.31250000000000D+00  0.00000000000000D+00
            0.43750000000000D+00 -0.31250000000000D+00  0.00000000000000D+00
            0.50000000000000D+00 -0.31250000000000D+00  0.00000000000000D+00
           -0.43750000000000D+00 -0.31250000000000D+00  0.00000000000000D+00
           -0.37500000000000D+00 -0.31250000000000D+00  0.00000000000000D+00
           -0.31250000000000D+00 -0.31250000000000D+00  0.00000000000000D+00
           -0.25000000000000D+00 -0.31250000000000D+00  0.00000000000000D+00
           -0.18750000000000D+00 -0.31250000000000D+00  0.00000000000000D+00
           -0.12500000000000D+00 -0.31250000000000D+00  0.00000000000000D+00
           -0.62500000000000D-01 -0.31250000000000D+00  0.00000000000000D+00
            0.00000000000000D+00 -0.25000000000000D+00  0.00000000000000D+00
            0.62500000000000D-01 -0.25000000000000D+00  0.00000000000000D+00
            0.12500000000000D+00 -0.25000000000000D+00  0.00000000000000D+00
            0.18750000000000D+00 -0.25000000000000D+00  0.00000000000000D+00
            0.25000000000000D+00 -0.25000000000000D+00  0.00000000000000D+00
            0.31250000000000D+00 -0.25000000000000D+00  0.00000000000000D+00
            0.37500000000000D+00 -0.25000000000000D+00  0.00000000000000D+00
            0.43750000000000D+00 -0.25000000000000D+00  0.00000000000000D+00
            0.50000000000000D+00 -0.25000000000000D+00  0.00000000000000D+00
           -0.43750000000000D+00 -0.25000000000000D+00  0.00000000000000D+00
           -0.37500000000000D+00 -0.25000000000000D+00  0.00000000000000D+00
           -0.31250000000000D+00 -0.25000000000000D+00  0.00000000000000D+00
           -0.25000000000000D+00 -0.25000000000000D+00  0.00000000000000D+00
           -0.18750000000000D+00 -0.25000000000000D+00  0.00000000000000D+00
           -0.12500000000000D+00 -0.25000000000000D+00  0.00000000000000D+00
           -0.62500000000000D-01 -0.25000000000000D+00  0.00000000000000D+00
            0.00000000000000D+00 -0.18750000000000D+00  0.00000000000000D+00
            0.62500000000000D-01 -0.18750000000000D+00  0.00000000000000D+00
            0.12500000000000D+00 -0.18750000000000D+00  0.00000000000000D+00
            0.18750000000000D+00 -0.18750000000000D+00  0.00000000000000D+00
            0.25000000000000D+00 -0.18750000000000D+00  0.00000000000000D+00
            0.31250000000000D+00 -0.18750000000000D+00  0.00000000000000D+00
            0.37500000000000D+00 -0.18750000000000D+00  0.00000000000000D+00
            0.43750000000000D+00 -0.18750000000000D+00  0.00000000000000D+00
            0.50000000000000D+00 -0.18750000000000D+00  0.00000000000000D+00
           -0.43750000000000D+00 -0.18750000000000D+00  0.00000000000000D+00
           -0.37500000000000D+00 -0.18750000000000D+00  0.00000000000000D+00
           -0.31250000000000D+00 -0.18750000000000D+00  0.00000000000000D+00
           -0.25000000000000D+00 -0.18750000000000D+00  0.00000000000000D+00
           -0.18750000000000D+00 -0.18750000000000D+00  0.00000000000000D+00
           -0.12500000000000D+00 -0.18750000000000D+00  0.00000000000000D+00
           -0.62500000000000D-01 -0.18750000000000D+00  0.00000000000000D+00
            0.00000000000000D+00 -0.12500000000000D+00  0.00000000000000D+00
            0.62500000000000D-01 -0.12500000000000D+00  0.00000000000000D+00
            0.12500000000000D+00 -0.12500000000000D+00  0.00000000000000D+00
            0.18750000000000D+00 -0.12500000000000D+00  0.00000000000000D+00
            0.25000000000000D+00 -0.12500000000000D+00  0.00000000000000D+00
            0.31250000000000D+00 -0.12500000000000D+00  0.00000000000000D+00
            0.37500000000000D+00 -0.12500000000000D+00  0.00000000000000D+00
            0.43750000000000D+00 -0.12500000000000D+00  0.00000000000000D+00
            0.50000000000000D+00 -0.12500000000000D+00  0.00000000000000D+00
           -0.43750000000000D+00 -0.12500000000000D+00  0.00000000000000D+00
           -0.37500000000000D+00 -0.12500000000000D+00  0.00000000000000D+00
           -0.31250000000000D+00 -0.12500000000000D+00  0.00000000000000D+00
           -0.25000000000000D+00 -0.12500000000000D+00  0.00000000000000D+00
           -0.18750000000000D+00 -0.12500000000000D+00  0.00000000000000D+00
           -0.12500000000000D+00 -0.12500000000000D+00  0.00000000000000D+00
           -0.62500000000000D-01 -0.12500000000000D+00  0.00000000000000D+00
            0.00000000000000D+00 -0.62500000000000D-01  0.00000000000000D+00
            0.62500000000000D-01 -0.62500000000000D-01  0.00000000000000D+00
            0.12500000000000D+00 -0.62500000000000D-01  0.00000000000000D+00
            0.18750000000000D+00 -0.62500000000000D-01  0.00000000000000D+00
            0.25000000000000D+00 -0.62500000000000D-01  0.00000000000000D+00
            0.31250000000000D+00 -0.62500000000000D-01  0.00000000000000D+00
            0.37500000000000D+00 -0.62500000000000D-01  0.00000000000000D+00
            0.43750000000000D+00 -0.62500000000000D-01  0.00000000000000D+00
            0.50000000000000D+00 -0.62500000000000D-01  0.00000000000000D+00
           -0.43750000000000D+00 -0.62500000000000D-01  0.00000000000000D+00
           -0.37500000000000D+00 -0.62500000000000D-01  0.00000000000000D+00
           -0.31250000000000D+00 -0.62500000000000D-01  0.00000000000000D+00
           -0.25000000000000D+00 -0.62500000000000D-01  0.00000000000000D+00
           -0.18750000000000D+00 -0.62500000000000D-01  0.00000000000000D+00
           -0.12500000000000D+00 -0.62500000000000D-01  0.00000000000000D+00
           -0.62500000000000D-01 -0.62500000000000D-01  0.00000000000000D+00
            0.00000000000000D+00  0.00000000000000D+00  0.62500000000000D-01
            0.62500000000000D-01  0.00000000000000D+00  0.62500000000000D-01
            0.12500000000000D+00  0.00000000000000D+00  0.62500000000000D-01
            0.18750000000000D+00  0.00000000000000D+00  0.62500000000000D-01
            0.25000000000000D+00  0.00000000000000D+00  0.62500000000000D-01
            0.31250000000000D+00  0.00000000000000D+00  0.62500000000000D-01
            0.37500000000000D+00  0.00000000000000D+00  0.62500000000000D-01
            0.43750000000000D+00  0.00000000000000D+00  0.62500000000000D-01
            0.50000000000000D+00  0.00000000000000D+00  0.62500000000000D-01
           -0.43750000000000D+00  0.00000000000000D+00  0.62500000000000D-01
           -0.37500000000000D+00  0.00000000000000D+00  0.62500000000000D-01
           -0.31250000000000D+00  0.00000000000000D+00  0.62500000000000D-01
           -0.25000000000000D+00  0.00000000000000D+00  0.62500000000000D-01
           -0.18750000000000D+00  0.00000000000000D+00  0.62500000000000D-01
           -0.12500000000000D+00  0.00000000000000D+00  0.62500000000000D-01
           -0.62500000000000D-01  0.00000000000000D+00  0.62500000000000D-01
            0.00000000000000D+00  0.62500000000000D-01  0.62500000000000D-01
            0.62500000000000D-01  0.62500000000000D-01  0.62500000000000D-01
            0.12500000000000D+00  0.62500000000000D-01  0.62500000000000D-01
            0.18750000000000D+00  0.62500000000000D-01  0.62500000000000D-01
            0.25000000000000D+00  0.62500000000000D-01  0.62500000000000D-01
            0.31250000000000D+00  0.62500000000000D-01  0.62500000000000D-01
            0.37500000000000D+00  0.62500000000000D-01  0.62500000000000D-01
            0.43750000000000D+00  0.62500000000000D-01  0.62500000000000D-01
            0.50000000000000D+00  0.62500000000000D-01  0.62500000000000D-01
           -0.43750000000000D+00  0.62500000000000D-01  0.62500000000000D-01
           -0.37500000000000D+00  0.62500000000000D-01  0.62500000000000D-01
           -0.31250000000000D+00  0.62500000000000D-01  0.62500000000000D-01
           -0.25000000000000D+00  0.62500000000000D-01  0.62500000000000D-01
           -0.18750000000000D+00  0.62500000000000D-01  0.62500000000000D-01
           -0.12500000000000D+00  0.62500000000000D-01  0.62500000000000D-01
           -0.62500000000000D-01  0.62500000000000D-01  0.62500000000000D-01
            0.00000000000000D+00  0.12500000000000D+00  0.62500000000000D-01
            0.62500000000000D-01  0.12500000000000D+00  0.62500000000000D-01
            0.12500000000000D+00  0.12500000000000D+00  0.62500000000000D-01
            0.18750000000000D+00  0.12500000000000D+00  0.62500000000000D-01
            0.25000000000000D+00  0.12500000000000D+00  0.62500000000000D-01
            0.31250000000000D+00  0.12500000000000D+00  0.62500000000000D-01
            0.37500000000000D+00  0.12500000000000D+00  0.62500000000000D-01
            0.43750000000000D+00  0.12500000000000D+00  0.62500000000000D-01
            0.50000000000000D+00  0.12500000000000D+00  0.62500000000000D-01
           -0.43750000000000D+00  0.12500000000000D+00  0.62500000000000D-01
           -0.37500000000000D+00  0.12500000000000D+00  0.62500000000000D-01
           -0.31250000000000D+00  0.12500000000000D+00  0.62500000000000D-01
           -0.25000000000000D+00  0.12500000000000D+00  0.62500000000000D-01
           -0.18750000000000D+00  0.12500000000000D+00  0.62500000000000D-01
           -0.12500000000000D+00  0.12500000000000D+00  0.62500000000000D-01
           -0.62500000000000D-01  0.12500000000000D+00  0.62500000000000D-01
            0.00000000000000D+00  0.18750000000000D+00  0.62500000000000D-01
            0.62500000000000D-01  0.18750000000000D+00  0.62500000000000D-01
            0.12500000000000D+00  0.18750000000000D+00  0.62500000000000D-01
            0.18750000000000D+00  0.18750000000000D+00  0.62500000000000D-01
            0.25000000000000D+00  0.18750000000000D+00  0.62500000000000D-01
            0.31250000000000D+00  0.18750000000000D+00  0.62500000000000D-01
            0.37500000000000D+00  0.18750000000000D+00  0.62500000000000D-01
            0.43750000000000D+00  0.18750000000000D+00  0.62500000000000D-01
            0.50000000000000D+00  0.18750000000000D+00  0.62500000000000D-01
           -0.43750000000000D+00  0.18750000000000D+00  0.62500000000000D-01
           -0.37500000000000D+00  0.18750000000000D+00  0.62500000000000D-01
           -0.31250000000000D+00  0.18750000000000D+00  0.62500000000000D-01
           -0.25000000000000D+00  0.18750000000000D+00  0.62500000000000D-01
           -0.18750000000000D+00  0.18750000000000D+00  0.62500000000000D-01
           -0.12500000000000D+00  0.18750000000000D+00  0.62500000000000D-01
           -0.62500000000000D-01  0.18750000000000D+00  0.62500000000000D-01
            0.00000000000000D+00  0.25000000000000D+00  0.62500000000000D-01
            0.62500000000000D-01  0.25000000000000D+00  0.62500000000000D-01
            0.12500000000000D+00  0.25000000000000D+00  0.62500000000000D-01
            0.18750000000000D+00  0.25000000000000D+00  0.62500000000000D-01
            0.25000000000000D+00  0.25000000000000D+00  0.62500000000000D-01
            0.31250000000000D+00  0.25000000000000D+00  0.62500000000000D-01
            0.37500000000000D+00  0.25000000000000D+00  0.62500000000000D-01
            0.43750000000000D+00  0.25000000000000D+00  0.62500000000000D-01
            0.50000000000000D+00  0.25000000000000D+00  0.62500000000000D-01
           -0.43750000000000D+00  0.25000000000000D+00  0.62500000000000D-01
           -0.37500000000000D+00  0.25000000000000D+00  0.62500000000000D-01
           -0.31250000000000D+00  0.25000000000000D+00  0.62500000000000D-01
           -0.25000000000000D+00  0.25000000000000D+00  0.62500000000000D-01
           -0.18750000000000D+00  0.25000000000000D+00  0.62500000000000D-01
           -0.12500000000000D+00  0.25000000000000D+00  0.62500000000000D-01
           -0.62500000000000D-01  0.25000000000000D+00  0.62500000000000D-01
            0.00000000000000D+00  0.31250000000000D+00  0.62500000000000D-01
            0.62500000000000D-01  0.31250000000000D+00  0.62500000000000D-01
            0.12500000000000D+00  0.31250000000000D+00  0.62500000000000D-01
            0.18750000000000D+00  0.31250000000000D+00  0.62500000000000D-01
            0.25000000000000D+00  0.31250000000000D+00  0.62500000000000D-01
            0.31250000000000D+00  0.31250000000000D+00  0.62500000000000D-01
            0.37500000000000D+00  0.31250000000000D+00  0.62500000000000D-01
            0.43750000000000D+00  0.31250000000000D+00  0.62500000000000D-01
            0.50000000000000D+00  0.31250000000000D+00  0.62500000000000D-01
           -0.43750000000000D+00  0.31250000000000D+00  0.62500000000000D-01
           -0.37500000000000D+00  0.31250000000000D+00  0.62500000000000D-01
           -0.31250000000000D+00  0.31250000000000D+00  0.62500000000000D-01
           -0.25000000000000D+00  0.31250000000000D+00  0.62500000000000D-01
           -0.18750000000000D+00  0.31250000000000D+00  0.62500000000000D-01
           -0.12500000000000D+00  0.31250000000000D+00  0.62500000000000D-01
           -0.62500000000000D-01  0.31250000000000D+00  0.62500000000000D-01
            0.00000000000000D+00  0.37500000000000D+00  0.62500000000000D-01
            0.62500000000000D-01  0.37500000000000D+00  0.62500000000000D-01
            0.12500000000000D+00  0.37500000000000D+00  0.62500000000000D-01
            0.18750000000000D+00  0.37500000000000D+00  0.62500000000000D-01
            0.25000000000000D+00  0.37500000000000D+00  0.62500000000000D-01
            0.31250000000000D+00  0.37500000000000D+00  0.62500000000000D-01
            0.37500000000000D+00  0.37500000000000D+00  0.62500000000000D-01
            0.43750000000000D+00  0.37500000000000D+00  0.62500000000000D-01
            0.50000000000000D+00  0.37500000000000D+00  0.62500000000000D-01
           -0.43750000000000D+00  0.37500000000000D+00  0.62500000000000D-01
           -0.37500000000000D+00  0.37500000000000D+00  0.62500000000000D-01
           -0.31250000000000D+00  0.37500000000000D+00  0.62500000000000D-01
           -0.25000000000000D+00  0.37500000000000D+00  0.62500000000000D-01
           -0.18750000000000D+00  0.37500000000000D+00  0.62500000000000D-01
           -0.12500000000000D+00  0.37500000000000D+00  0.62500000000000D-01
           -0.62500000000000D-01  0.37500000000000D+00  0.62500000000000D-01
            0.00000000000000D+00  0.43750000000000D+00  0.62500000000000D-01
            0.62500000000000D-01  0.43750000000000D+00  0.62500000000000D-01
            0.12500000000000D+00  0.43750000000000D+00  0.62500000000000D-01
            0.18750000000000D+00  0.43750000000000D+00  0.62500000000000D-01
            0.25000000000000D+00  0.43750000000000D+00  0.62500000000000D-01
            0.31250000000000D+00  0.43750000000000D+00  0.62500000000000D-01
            0.37500000000000D+00  0.43750000000000D+00  0.62500000000000D-01
            0.43750000000000D+00  0.43750000000000D+00  0.62500000000000D-01
            0.50000000000000D+00  0.43750000000000D+00  0.62500000000000D-01
           -0.43750000000000D+00  0.43750000000000D+00  0.62500000000000D-01
           -0.37500000000000D+00  0.43750000000000D+00  0.62500000000000D-01
           -0.31250000000000D+00  0.43750000000000D+00  0.62500000000000D-01
           -0.25000000000000D+00  0.43750000000000D+00  0.62500000000000D-01
           -0.18750000000000D+00  0.43750000000000D+00  0.62500000000000D-01
           -0.12500000000000D+00  0.43750000000000D+00  0.62500000000000D-01
           -0.62500000000000D-01  0.43750000000000D+00  0.62500000000000D-01
            0.00000000000000D+00  0.50000000000000D+00  0.62500000000000D-01
            0.62500000000000D-01  0.50000000000000D+00  0.62500000000000D-01
            0.12500000000000D+00  0.50000000000000D+00  0.62500000000000D-01
            0.18750000000000D+00  0.50000000000000D+00  0.62500000000000D-01
            0.25000000000000D+00  0.50000000000000D+00  0.62500000000000D-01
            0.31250000000000D+00  0.50000000000000D+00  0.62500000000000D-01
            0.37500000000000D+00  0.50000000000000D+00  0.62500000000000D-01
            0.43750000000000D+00  0.50000000000000D+00  0.62500000000000D-01
            0.50000000000000D+00  0.50000000000000D+00  0.62500000000000D-01
           -0.43750000000000D+00  0.50000000000000D+00  0.62500000000000D-01
           -0.37500000000000D+00  0.50000000000000D+00  0.62500000000000D-01
           -0.31250000000000D+00  0.50000000000000D+00  0.62500000000000D-01
           -0.25000000000000D+00  0.50000000000000D+00  0.62500000000000D-01
           -0.18750000000000D+00  0.50000000000000D+00  0.62500000000000D-01
           -0.12500000000000D+00  0.50000000000000D+00  0.62500000000000D-01
           -0.62500000000000D-01  0.50000000000000D+00  0.62500000000000D-01
            0.00000000000000D+00 -0.43750000000000D+00  0.62500000000000D-01
            0.62500000000000D-01 -0.43750000000000D+00  0.62500000000000D-01
            0.12500000000000D+00 -0.43750000000000D+00  0.62500000000000D-01
            0.18750000000000D+00 -0.43750000000000D+00  0.62500000000000D-01
            0.25000000000000D+00 -0.43750000000000D+00  0.62500000000000D-01
            0.31250000000000D+00 -0.43750000000000D+00  0.62500000000000D-01
            0.37500000000000D+00 -0.43750000000000D+00  0.62500000000000D-01
            0.43750000000000D+00 -0.43750000000000D+00  0.62500000000000D-01
            0.50000000000000D+00 -0.43750000000000D+00  0.62500000000000D-01
           -0.43750000000000D+00 -0.43750000000000D+00  0.62500000000000D-01
           -0.37500000000000D+00 -0.43750000000000D+00  0.62500000000000D-01
           -0.31250000000000D+00 -0.43750000000000D+00  0.62500000000000D-01
           -0.25000000000000D+00 -0.43750000000000D+00  0.62500000000000D-01
           -0.18750000000000D+00 -0.43750000000000D+00  0.62500000000000D-01
           -0.12500000000000D+00 -0.43750000000000D+00  0.62500000000000D-01
           -0.62500000000000D-01 -0.43750000000000D+00  0.62500000000000D-01
            0.00000000000000D+00 -0.37500000000000D+00  0.62500000000000D-01
            0.62500000000000D-01 -0.37500000000000D+00  0.62500000000000D-01
            0.12500000000000D+00 -0.37500000000000D+00  0.62500000000000D-01
            0.18750000000000D+00 -0.37500000000000D+00  0.62500000000000D-01
            0.25000000000000D+00 -0.37500000000000D+00  0.62500000000000D-01
            0.31250000000000D+00 -0.37500000000000D+00  0.62500000000000D-01
            0.37500000000000D+00 -0.37500000000000D+00  0.62500000000000D-01
            0.43750000000000D+00 -0.37500000000000D+00  0.62500000000000D-01
            0.50000000000000D+00 -0.37500000000000D+00  0.62500000000000D-01
           -0.43750000000000D+00 -0.37500000000000D+00  0.62500000000000D-01
           -0.37500000000000D+00 -0.37500000000000D+00  0.62500000000000D-01
           -0.31250000000000D+00 -0.37500000000000D+00  0.62500000000000D-01
           -0.25000000000000D+00 -0.37500000000000D+00  0.62500000000000D-01
           -0.18750000000000D+00 -0.37500000000000D+00  0.62500000000000D-01
           -0.12500000000000D+00 -0.37500000000000D+00  0.62500000000000D-01
           -0.62500000000000D-01 -0.37500000000000D+00  0.62500000000000D-01
            0.00000000000000D+00 -0.31250000000000D+00  0.62500000000000D-01
            0.62500000000000D-01 -0.31250000000000D+00  0.62500000000000D-01
            0.12500000000000D+00 -0.31250000000000D+00  0.62500000000000D-01
            0.18750000000000D+00 -0.31250000000000D+00  0.62500000000000D-01
            0.25000000000000D+00 -0.31250000000000D+00  0.62500000000000D-01
            0.31250000000000D+00 -0.31250000000000D+00  0.62500000000000D-01
            0.37500000000000D+00 -0.31250000000000D+00  0.62500000000000D-01
            0.43750000000000D+00 -0.31250000000000D+00  0.62500000000000D-01
            0.50000000000000D+00 -0.31250000000000D+00  0.62500000000000D-01
           -0.43750000000000D+00 -0.31250000000000D+00  0.62500000000000D-01
           -0.37500000000000D+00 -0.31250000000000D+00  0.62500000000000D-01
           -0.31250000000000D+00 -0.31250000000000D+00  0.62500000000000D-01
           -0.25000000000000D+00 -0.31250000000000D+00  0.62500000000000D-01
           -0.18750000000000D+00 -0.31250000000000D+00  0.62500000000000D-01
           -0.12500000000000D+00 -0.31250000000000D+00  0.62500000000000D-01
           -0.62500000000000D-01 -0.31250000000000D+00  0.62500000000000D-01
            0.00000000000000D+00 -0.25000000000000D+00  0.62500000000000D-01
            0.62500000000000D-01 -0.25000000000000D+00  0.62500000000000D-01
            0.12500000000000D+00 -0.25000000000000D+00  0.62500000000000D-01
            0.18750000000000D+00 -0.25000000000000D+00  0.62500000000000D-01
            0.25000000000000D+00 -0.25000000000000D+00  0.62500000000000D-01
            0.31250000000000D+00 -0.25000000000000D+00  0.62500000000000D-01
            0.37500000000000D+00 -0.25000000000000D+00  0.62500000000000D-01
            0.43750000000000D+00 -0.25000000000000D+00  0.62500000000000D-01
            0.50000000000000D+00 -0.25000000000000D+00  0.62500000000000D-01
           -0.43750000000000D+00 -0.25000000000000D+00  0.62500000000000D-01
           -0.37500000000000D+00 -0.25000000000000D+00  0.62500000000000D-01
           -0.31250000000000D+00 -0.25000000000000D+00  0.62500000000000D-01
           -0.25000000000000D+00 -0.25000000000000D+00  0.62500000000000D-01
           -0.18750000000000D+00 -0.25000000000000D+00  0.62500000000000D-01
           -0.12500000000000D+00 -0.25000000000000D+00  0.62500000000000D-01
           -0.62500000000000D-01 -0.25000000000000D+00  0.62500000000000D-01
            0.00000000000000D+00 -0.18750000000000D+00  0.62500000000000D-01
            0.62500000000000D-01 -0.18750000000000D+00  0.62500000000000D-01
            0.12500000000000D+00 -0.18750000000000D+00  0.62500000000000D-01
            0.18750000000000D+00 -0.18750000000000D+00  0.62500000000000D-01
            0.25000000000000D+00 -0.18750000000000D+00  0.62500000000000D-01
            0.31250000000000D+00 -0.18750000000000D+00  0.62500000000000D-01
            0.37500000000000D+00 -0.18750000000000D+00  0.62500000000000D-01
            0.43750000000000D+00 -0.18750000000000D+00  0.62500000000000D-01
            0.50000000000000D+00 -0.18750000000000D+00  0.62500000000000D-01
           -0.43750000000000D+00 -0.18750000000000D+00  0.62500000000000D-01
           -0.37500000000000D+00 -0.18750000000000D+00  0.62500000000000D-01
           -0.31250000000000D+00 -0.18750000000000D+00  0.62500000000000D-01
           -0.25000000000000D+00 -0.18750000000000D+00  0.62500000000000D-01
           -0.18750000000000D+00 -0.18750000000000D+00  0.62500000000000D-01
           -0.12500000000000D+00 -0.18750000000000D+00  0.62500000000000D-01
           -0.62500000000000D-01 -0.18750000000000D+00  0.62500000000000D-01
            0.00000000000000D+00 -0.12500000000000D+00  0.62500000000000D-01
            0.62500000000000D-01 -0.12500000000000D+00  0.62500000000000D-01
            0.12500000000000D+00 -0.12500000000000D+00  0.62500000000000D-01
            0.18750000000000D+00 -0.12500000000000D+00  0.62500000000000D-01
            0.25000000000000D+00 -0.12500000000000D+00  0.62500000000000D-01
            0.31250000000000D+00 -0.12500000000000D+00  0.62500000000000D-01
            0.37500000000000D+00 -0.12500000000000D+00  0.62500000000000D-01
            0.43750000000000D+00 -0.12500000000000D+00  0.62500000000000D-01
            0.50000000000000D+00 -0.12500000000000D+00  0.62500000000000D-01
           -0.43750000000000D+00 -0.12500000000000D+00  0.62500000000000D-01
           -0.37500000000000D+00 -0.12500000000000D+00  0.62500000000000D-01
           -0.31250000000000D+00 -0.12500000000000D+00  0.62500000000000D-01
           -0.25000000000000D+00 -0.12500000000000D+00  0.62500000000000D-01
           -0.18750000000000D+00 -0.12500000000000D+00  0.62500000000000D-01
           -0.12500000000000D+00 -0.12500000000000D+00  0.62500000000000D-01
           -0.62500000000000D-01 -0.12500000000000D+00  0.62500000000000D-01
            0.00000000000000D+00 -0.62500000000000D-01  0.62500000000000D-01
            0.62500000000000D-01 -0.62500000000000D-01  0.62500000000000D-01
            0.12500000000000D+00 -0.62500000000000D-01  0.62500000000000D-01
            0.18750000000000D+00 -0.62500000000000D-01  0.62500000000000D-01
            0.25000000000000D+00 -0.62500000000000D-01  0.62500000000000D-01
            0.31250000000000D+00 -0.62500000000000D-01  0.62500000000000D-01
            0.37500000000000D+00 -0.62500000000000D-01  0.62500000000000D-01
            0.43750000000000D+00 -0.62500000000000D-01  0.62500000000000D-01
            0.50000000000000D+00 -0.62500000000000D-01  0.62500000000000D-01
           -0.43750000000000D+00 -0.62500000000000D-01  0.62500000000000D-01
           -0.37500000000000D+00 -0.62500000000000D-01  0.62500000000000D-01
           -0.31250000000000D+00 -0.62500000000000D-01  0.62500000000000D-01
           -0.25000000000000D+00 -0.62500000000000D-01  0.62500000000000D-01
           -0.18750000000000D+00 -0.62500000000000D-01  0.62500000000000D-01
           -0.12500000000000D+00 -0.62500000000000D-01  0.62500000000000D-01
           -0.62500000000000D-01 -0.62500000000000D-01  0.62500000000000D-01
            0.00000000000000D+00  0.00000000000000D+00  0.12500000000000D+00
            0.62500000000000D-01  0.00000000000000D+00  0.12500000000000D+00
            0.12500000000000D+00  0.00000000000000D+00  0.12500000000000D+00
            0.18750000000000D+00  0.00000000000000D+00  0.12500000000000D+00
            0.25000000000000D+00  0.00000000000000D+00  0.12500000000000D+00
            0.31250000000000D+00  0.00000000000000D+00  0.12500000000000D+00
            0.37500000000000D+00  0.00000000000000D+00  0.12500000000000D+00
            0.43750000000000D+00  0.00000000000000D+00  0.12500000000000D+00
            0.50000000000000D+00  0.00000000000000D+00  0.12500000000000D+00
           -0.43750000000000D+00  0.00000000000000D+00  0.12500000000000D+00
           -0.37500000000000D+00  0.00000000000000D+00  0.12500000000000D+00
           -0.31250000000000D+00  0.00000000000000D+00  0.12500000000000D+00
           -0.25000000000000D+00  0.00000000000000D+00  0.12500000000000D+00
           -0.18750000000000D+00  0.00000000000000D+00  0.12500000000000D+00
           -0.12500000000000D+00  0.00000000000000D+00  0.12500000000000D+00
           -0.62500000000000D-01  0.00000000000000D+00  0.12500000000000D+00
            0.00000000000000D+00  0.62500000000000D-01  0.12500000000000D+00
            0.62500000000000D-01  0.62500000000000D-01  0.12500000000000D+00
            0.12500000000000D+00  0.62500000000000D-01  0.12500000000000D+00
            0.18750000000000D+00  0.62500000000000D-01  0.12500000000000D+00
            0.25000000000000D+00  0.62500000000000D-01  0.12500000000000D+00
            0.31250000000000D+00  0.62500000000000D-01  0.12500000000000D+00
            0.37500000000000D+00  0.62500000000000D-01  0.12500000000000D+00
            0.43750000000000D+00  0.62500000000000D-01  0.12500000000000D+00
            0.50000000000000D+00  0.62500000000000D-01  0.12500000000000D+00
           -0.43750000000000D+00  0.62500000000000D-01  0.12500000000000D+00
           -0.37500000000000D+00  0.62500000000000D-01  0.12500000000000D+00
           -0.31250000000000D+00  0.62500000000000D-01  0.12500000000000D+00
           -0.25000000000000D+00  0.62500000000000D-01  0.12500000000000D+00
           -0.18750000000000D+00  0.62500000000000D-01  0.12500000000000D+00
           -0.12500000000000D+00  0.62500000000000D-01  0.12500000000000D+00
           -0.62500000000000D-01  0.62500000000000D-01  0.12500000000000D+00
            0.00000000000000D+00  0.12500000000000D+00  0.12500000000000D+00
            0.62500000000000D-01  0.12500000000000D+00  0.12500000000000D+00
            0.12500000000000D+00  0.12500000000000D+00  0.12500000000000D+00
            0.18750000000000D+00  0.12500000000000D+00  0.12500000000000D+00
            0.25000000000000D+00  0.12500000000000D+00  0.12500000000000D+00
            0.31250000000000D+00  0.12500000000000D+00  0.12500000000000D+00
            0.37500000000000D+00  0.12500000000000D+00  0.12500000000000D+00
            0.43750000000000D+00  0.12500000000000D+00  0.12500000000000D+00
            0.50000000000000D+00  0.12500000000000D+00  0.12500000000000D+00
           -0.43750000000000D+00  0.12500000000000D+00  0.12500000000000D+00
           -0.37500000000000D+00  0.12500000000000D+00  0.12500000000000D+00
           -0.31250000000000D+00  0.12500000000000D+00  0.12500000000000D+00
           -0.25000000000000D+00  0.12500000000000D+00  0.12500000000000D+00
           -0.18750000000000D+00  0.12500000000000D+00  0.12500000000000D+00
           -0.12500000000000D+00  0.12500000000000D+00  0.12500000000000D+00
           -0.62500000000000D-01  0.12500000000000D+00  0.12500000000000D+00
            0.00000000000000D+00  0.18750000000000D+00  0.12500000000000D+00
            0.62500000000000D-01  0.18750000000000D+00  0.12500000000000D+00
            0.12500000000000D+00  0.18750000000000D+00  0.12500000000000D+00
            0.18750000000000D+00  0.18750000000000D+00  0.12500000000000D+00
            0.25000000000000D+00  0.18750000000000D+00  0.12500000000000D+00
            0.31250000000000D+00  0.18750000000000D+00  0.12500000000000D+00
            0.37500000000000D+00  0.18750000000000D+00  0.12500000000000D+00
            0.43750000000000D+00  0.18750000000000D+00  0.12500000000000D+00
            0.50000000000000D+00  0.18750000000000D+00  0.12500000000000D+00
           -0.43750000000000D+00  0.18750000000000D+00  0.12500000000000D+00
           -0.37500000000000D+00  0.18750000000000D+00  0.12500000000000D+00
           -0.31250000000000D+00  0.18750000000000D+00  0.12500000000000D+00
           -0.25000000000000D+00  0.18750000000000D+00  0.12500000000000D+00
           -0.18750000000000D+00  0.18750000000000D+00  0.12500000000000D+00
           -0.12500000000000D+00  0.18750000000000D+00  0.12500000000000D+00
           -0.62500000000000D-01  0.18750000000000D+00  0.12500000000000D+00
            0.00000000000000D+00  0.25000000000000D+00  0.12500000000000D+00
            0.62500000000000D-01  0.25000000000000D+00  0.12500000000000D+00
            0.12500000000000D+00  0.25000000000000D+00  0.12500000000000D+00
            0.18750000000000D+00  0.25000000000000D+00  0.12500000000000D+00
            0.25000000000000D+00  0.25000000000000D+00  0.12500000000000D+00
            0.31250000000000D+00  0.25000000000000D+00  0.12500000000000D+00
            0.37500000000000D+00  0.25000000000000D+00  0.12500000000000D+00
            0.43750000000000D+00  0.25000000000000D+00  0.12500000000000D+00
            0.50000000000000D+00  0.25000000000000D+00  0.12500000000000D+00
           -0.43750000000000D+00  0.25000000000000D+00  0.12500000000000D+00
           -0.37500000000000D+00  0.25000000000000D+00  0.12500000000000D+00
           -0.31250000000000D+00  0.25000000000000D+00  0.12500000000000D+00
           -0.25000000000000D+00  0.25000000000000D+00  0.12500000000000D+00
           -0.18750000000000D+00  0.25000000000000D+00  0.12500000000000D+00
           -0.12500000000000D+00  0.25000000000000D+00  0.12500000000000D+00
           -0.62500000000000D-01  0.25000000000000D+00  0.12500000000000D+00
            0.00000000000000D+00  0.31250000000000D+00  0.12500000000000D+00
            0.62500000000000D-01  0.31250000000000D+00  0.12500000000000D+00
            0.12500000000000D+00  0.31250000000000D+00  0.12500000000000D+00
            0.18750000000000D+00  0.31250000000000D+00  0.12500000000000D+00
            0.25000000000000D+00  0.31250000000000D+00  0.12500000000000D+00
            0.31250000000000D+00  0.31250000000000D+00  0.12500000000000D+00
            0.37500000000000D+00  0.31250000000000D+00  0.12500000000000D+00
            0.43750000000000D+00  0.31250000000000D+00  0.12500000000000D+00
            0.50000000000000D+00  0.31250000000000D+00  0.12500000000000D+00
           -0.43750000000000D+00  0.31250000000000D+00  0.12500000000000D+00
           -0.37500000000000D+00  0.31250000000000D+00  0.12500000000000D+00
           -0.31250000000000D+00  0.31250000000000D+00  0.12500000000000D+00
           -0.25000000000000D+00  0.31250000000000D+00  0.12500000000000D+00
           -0.18750000000000D+00  0.31250000000000D+00  0.12500000000000D+00
           -0.12500000000000D+00  0.31250000000000D+00  0.12500000000000D+00
           -0.62500000000000D-01  0.31250000000000D+00  0.12500000000000D+00
            0.00000000000000D+00  0.37500000000000D+00  0.12500000000000D+00
            0.62500000000000D-01  0.37500000000000D+00  0.12500000000000D+00
            0.12500000000000D+00  0.37500000000000D+00  0.12500000000000D+00
            0.18750000000000D+00  0.37500000000000D+00  0.12500000000000D+00
            0.25000000000000D+00  0.37500000000000D+00  0.12500000000000D+00
            0.31250000000000D+00  0.37500000000000D+00  0.12500000000000D+00
            0.37500000000000D+00  0.37500000000000D+00  0.12500000000000D+00
            0.43750000000000D+00  0.37500000000000D+00  0.12500000000000D+00
            0.50000000000000D+00  0.37500000000000D+00  0.12500000000000D+00
           -0.43750000000000D+00  0.37500000000000D+00  0.12500000000000D+00
           -0.37500000000000D+00  0.37500000000000D+00  0.12500000000000D+00
           -0.31250000000000D+00  0.37500000000000D+00  0.12500000000000D+00
           -0.25000000000000D+00  0.37500000000000D+00  0.12500000000000D+00
           -0.18750000000000D+00  0.37500000000000D+00  0.12500000000000D+00
           -0.12500000000000D+00  0.37500000000000D+00  0.12500000000000D+00
           -0.62500000000000D-01  0.37500000000000D+00  0.12500000000000D+00
            0.00000000000000D+00  0.43750000000000D+00  0.12500000000000D+00
            0.62500000000000D-01  0.43750000000000D+00  0.12500000000000D+00
            0.12500000000000D+00  0.43750000000000D+00  0.12500000000000D+00
            0.18750000000000D+00  0.43750000000000D+00  0.12500000000000D+00
            0.25000000000000D+00  0.43750000000000D+00  0.12500000000000D+00
            0.31250000000000D+00  0.43750000000000D+00  0.12500000000000D+00
            0.37500000000000D+00  0.43750000000000D+00  0.12500000000000D+00
            0.43750000000000D+00  0.43750000000000D+00  0.12500000000000D+00
            0.50000000000000D+00  0.43750000000000D+00  0.12500000000000D+00
           -0.43750000000000D+00  0.43750000000000D+00  0.12500000000000D+00
           -0.37500000000000D+00  0.43750000000000D+00  0.12500000000000D+00
           -0.31250000000000D+00  0.43750000000000D+00  0.12500000000000D+00
           -0.25000000000000D+00  0.43750000000000D+00  0.12500000000000D+00
           -0.18750000000000D+00  0.43750000000000D+00  0.12500000000000D+00
           -0.12500000000000D+00  0.43750000000000D+00  0.12500000000000D+00
           -0.62500000000000D-01  0.43750000000000D+00  0.12500000000000D+00
            0.00000000000000D+00  0.50000000000000D+00  0.12500000000000D+00
            0.62500000000000D-01  0.50000000000000D+00  0.12500000000000D+00
            0.12500000000000D+00  0.50000000000000D+00  0.12500000000000D+00
            0.18750000000000D+00  0.50000000000000D+00  0.12500000000000D+00
            0.25000000000000D+00  0.50000000000000D+00  0.12500000000000D+00
            0.31250000000000D+00  0.50000000000000D+00  0.12500000000000D+00
            0.37500000000000D+00  0.50000000000000D+00  0.12500000000000D+00
            0.43750000000000D+00  0.50000000000000D+00  0.12500000000000D+00
            0.50000000000000D+00  0.50000000000000D+00  0.12500000000000D+00
           -0.43750000000000D+00  0.50000000000000D+00  0.12500000000000D+00
           -0.37500000000000D+00  0.50000000000000D+00  0.12500000000000D+00
           -0.31250000000000D+00  0.50000000000000D+00  0.12500000000000D+00
           -0.25000000000000D+00  0.50000000000000D+00  0.12500000000000D+00
           -0.18750000000000D+00  0.50000000000000D+00  0.12500000000000D+00
           -0.12500000000000D+00  0.50000000000000D+00  0.12500000000000D+00
           -0.62500000000000D-01  0.50000000000000D+00  0.12500000000000D+00
            0.00000000000000D+00 -0.43750000000000D+00  0.12500000000000D+00
            0.62500000000000D-01 -0.43750000000000D+00  0.12500000000000D+00
            0.12500000000000D+00 -0.43750000000000D+00  0.12500000000000D+00
            0.18750000000000D+00 -0.43750000000000D+00  0.12500000000000D+00
            0.25000000000000D+00 -0.43750000000000D+00  0.12500000000000D+00
            0.31250000000000D+00 -0.43750000000000D+00  0.12500000000000D+00
            0.37500000000000D+00 -0.43750000000000D+00  0.12500000000000D+00
            0.43750000000000D+00 -0.43750000000000D+00  0.12500000000000D+00
            0.50000000000000D+00 -0.43750000000000D+00  0.12500000000000D+00
           -0.43750000000000D+00 -0.43750000000000D+00  0.12500000000000D+00
           -0.37500000000000D+00 -0.43750000000000D+00  0.12500000000000D+00
           -0.31250000000000D+00 -0.43750000000000D+00  0.12500000000000D+00
           -0.25000000000000D+00 -0.43750000000000D+00  0.12500000000000D+00
           -0.18750000000000D+00 -0.43750000000000D+00  0.12500000000000D+00
           -0.12500000000000D+00 -0.43750000000000D+00  0.12500000000000D+00
           -0.62500000000000D-01 -0.43750000000000D+00  0.12500000000000D+00
            0.00000000000000D+00 -0.37500000000000D+00  0.12500000000000D+00
            0.62500000000000D-01 -0.37500000000000D+00  0.12500000000000D+00
            0.12500000000000D+00 -0.37500000000000D+00  0.12500000000000D+00
            0.18750000000000D+00 -0.37500000000000D+00  0.12500000000000D+00
            0.25000000000000D+00 -0.37500000000000D+00  0.12500000000000D+00
            0.31250000000000D+00 -0.37500000000000D+00  0.12500000000000D+00
            0.37500000000000D+00 -0.37500000000000D+00  0.12500000000000D+00
            0.43750000000000D+00 -0.37500000000000D+00  0.12500000000000D+00
            0.50000000000000D+00 -0.37500000000000D+00  0.12500000000000D+00
           -0.43750000000000D+00 -0.37500000000000D+00  0.12500000000000D+00
           -0.37500000000000D+00 -0.37500000000000D+00  0.12500000000000D+00
           -0.31250000000000D+00 -0.37500000000000D+00  0.12500000000000D+00
           -0.25000000000000D+00 -0.37500000000000D+00  0.12500000000000D+00
           -0.18750000000000D+00 -0.37500000000000D+00  0.12500000000000D+00
           -0.12500000000000D+00 -0.37500000000000D+00  0.12500000000000D+00
           -0.62500000000000D-01 -0.37500000000000D+00  0.12500000000000D+00
            0.00000000000000D+00 -0.31250000000000D+00  0.12500000000000D+00
            0.62500000000000D-01 -0.31250000000000D+00  0.12500000000000D+00
            0.12500000000000D+00 -0.31250000000000D+00  0.12500000000000D+00
            0.18750000000000D+00 -0.31250000000000D+00  0.12500000000000D+00
            0.25000000000000D+00 -0.31250000000000D+00  0.12500000000000D+00
            0.31250000000000D+00 -0.31250000000000D+00  0.12500000000000D+00
            0.37500000000000D+00 -0.31250000000000D+00  0.12500000000000D+00
            0.43750000000000D+00 -0.31250000000000D+00  0.12500000000000D+00
            0.50000000000000D+00 -0.31250000000000D+00  0.12500000000000D+00
           -0.43750000000000D+00 -0.31250000000000D+00  0.12500000000000D+00
           -0.37500000000000D+00 -0.31250000000000D+00  0.12500000000000D+00
           -0.31250000000000D+00 -0.31250000000000D+00  0.12500000000000D+00
           -0.25000000000000D+00 -0.31250000000000D+00  0.12500000000000D+00
           -0.18750000000000D+00 -0.31250000000000D+00  0.12500000000000D+00
           -0.12500000000000D+00 -0.31250000000000D+00  0.12500000000000D+00
           -0.62500000000000D-01 -0.31250000000000D+00  0.12500000000000D+00
            0.00000000000000D+00 -0.25000000000000D+00  0.12500000000000D+00
            0.62500000000000D-01 -0.25000000000000D+00  0.12500000000000D+00
            0.12500000000000D+00 -0.25000000000000D+00  0.12500000000000D+00
            0.18750000000000D+00 -0.25000000000000D+00  0.12500000000000D+00
            0.25000000000000D+00 -0.25000000000000D+00  0.12500000000000D+00
            0.31250000000000D+00 -0.25000000000000D+00  0.12500000000000D+00
            0.37500000000000D+00 -0.25000000000000D+00  0.12500000000000D+00
            0.43750000000000D+00 -0.25000000000000D+00  0.12500000000000D+00
            0.50000000000000D+00 -0.25000000000000D+00  0.12500000000000D+00
           -0.43750000000000D+00 -0.25000000000000D+00  0.12500000000000D+00
           -0.37500000000000D+00 -0.25000000000000D+00  0.12500000000000D+00
           -0.31250000000000D+00 -0.25000000000000D+00  0.12500000000000D+00
           -0.25000000000000D+00 -0.25000000000000D+00  0.12500000000000D+00
           -0.18750000000000D+00 -0.25000000000000D+00  0.12500000000000D+00
           -0.12500000000000D+00 -0.25000000000000D+00  0.12500000000000D+00
           -0.62500000000000D-01 -0.25000000000000D+00  0.12500000000000D+00
            0.00000000000000D+00 -0.18750000000000D+00  0.12500000000000D+00
            0.62500000000000D-01 -0.18750000000000D+00  0.12500000000000D+00
            0.12500000000000D+00 -0.18750000000000D+00  0.12500000000000D+00
            0.18750000000000D+00 -0.18750000000000D+00  0.12500000000000D+00
            0.25000000000000D+00 -0.18750000000000D+00  0.12500000000000D+00
            0.31250000000000D+00 -0.18750000000000D+00  0.12500000000000D+00
            0.37500000000000D+00 -0.18750000000000D+00  0.12500000000000D+00
            0.43750000000000D+00 -0.18750000000000D+00  0.12500000000000D+00
            0.50000000000000D+00 -0.18750000000000D+00  0.12500000000000D+00
           -0.43750000000000D+00 -0.18750000000000D+00  0.12500000000000D+00
           -0.37500000000000D+00 -0.18750000000000D+00  0.12500000000000D+00
           -0.31250000000000D+00 -0.18750000000000D+00  0.12500000000000D+00
           -0.25000000000000D+00 -0.18750000000000D+00  0.12500000000000D+00
           -0.18750000000000D+00 -0.18750000000000D+00  0.12500000000000D+00
           -0.12500000000000D+00 -0.18750000000000D+00  0.12500000000000D+00
           -0.62500000000000D-01 -0.18750000000000D+00  0.12500000000000D+00
            0.00000000000000D+00 -0.12500000000000D+00  0.12500000000000D+00
            0.62500000000000D-01 -0.12500000000000D+00  0.12500000000000D+00
            0.12500000000000D+00 -0.12500000000000D+00  0.12500000000000D+00
            0.18750000000000D+00 -0.12500000000000D+00  0.12500000000000D+00
            0.25000000000000D+00 -0.12500000000000D+00  0.12500000000000D+00
            0.31250000000000D+00 -0.12500000000000D+00  0.12500000000000D+00
            0.37500000000000D+00 -0.12500000000000D+00  0.12500000000000D+00
            0.43750000000000D+00 -0.12500000000000D+00  0.12500000000000D+00
            0.50000000000000D+00 -0.12500000000000D+00  0.12500000000000D+00
           -0.43750000000000D+00 -0.12500000000000D+00  0.12500000000000D+00
           -0.37500000000000D+00 -0.12500000000000D+00  0.12500000000000D+00
           -0.31250000000000D+00 -0.12500000000000D+00  0.12500000000000D+00
           -0.25000000000000D+00 -0.12500000000000D+00  0.12500000000000D+00
           -0.18750000000000D+00 -0.12500000000000D+00  0.12500000000000D+00
           -0.12500000000000D+00 -0.12500000000000D+00  0.12500000000000D+00
           -0.62500000000000D-01 -0.12500000000000D+00  0.12500000000000D+00
            0.00000000000000D+00 -0.62500000000000D-01  0.12500000000000D+00
            0.62500000000000D-01 -0.62500000000000D-01  0.12500000000000D+00
            0.12500000000000D+00 -0.62500000000000D-01  0.12500000000000D+00
            0.18750000000000D+00 -0.62500000000000D-01  0.12500000000000D+00
            0.25000000000000D+00 -0.62500000000000D-01  0.12500000000000D+00
            0.31250000000000D+00 -0.62500000000000D-01  0.12500000000000D+00
            0.37500000000000D+00 -0.62500000000000D-01  0.12500000000000D+00
            0.43750000000000D+00 -0.62500000000000D-01  0.12500000000000D+00
            0.50000000000000D+00 -0.62500000000000D-01  0.12500000000000D+00
           -0.43750000000000D+00 -0.62500000000000D-01  0.12500000000000D+00
           -0.37500000000000D+00 -0.62500000000000D-01  0.12500000000000D+00
           -0.31250000000000D+00 -0.62500000000000D-01  0.12500000000000D+00
           -0.25000000000000D+00 -0.62500000000000D-01  0.12500000000000D+00
           -0.18750000000000D+00 -0.62500000000000D-01  0.12500000000000D+00
           -0.12500000000000D+00 -0.62500000000000D-01  0.12500000000000D+00
           -0.62500000000000D-01 -0.62500000000000D-01  0.12500000000000D+00
            0.00000000000000D+00  0.00000000000000D+00  0.18750000000000D+00
            0.62500000000000D-01  0.00000000000000D+00  0.18750000000000D+00
            0.12500000000000D+00  0.00000000000000D+00  0.18750000000000D+00
            0.18750000000000D+00  0.00000000000000D+00  0.18750000000000D+00
            0.25000000000000D+00  0.00000000000000D+00  0.18750000000000D+00
            0.31250000000000D+00  0.00000000000000D+00  0.18750000000000D+00
            0.37500000000000D+00  0.00000000000000D+00  0.18750000000000D+00
            0.43750000000000D+00  0.00000000000000D+00  0.18750000000000D+00
            0.50000000000000D+00  0.00000000000000D+00  0.18750000000000D+00
           -0.43750000000000D+00  0.00000000000000D+00  0.18750000000000D+00
           -0.37500000000000D+00  0.00000000000000D+00  0.18750000000000D+00
           -0.31250000000000D+00  0.00000000000000D+00  0.18750000000000D+00
           -0.25000000000000D+00  0.00000000000000D+00  0.18750000000000D+00
           -0.18750000000000D+00  0.00000000000000D+00  0.18750000000000D+00
           -0.12500000000000D+00  0.00000000000000D+00  0.18750000000000D+00
           -0.62500000000000D-01  0.00000000000000D+00  0.18750000000000D+00
            0.00000000000000D+00  0.62500000000000D-01  0.18750000000000D+00
            0.62500000000000D-01  0.62500000000000D-01  0.18750000000000D+00
            0.12500000000000D+00  0.62500000000000D-01  0.18750000000000D+00
            0.18750000000000D+00  0.62500000000000D-01  0.18750000000000D+00
            0.25000000000000D+00  0.62500000000000D-01  0.18750000000000D+00
            0.31250000000000D+00  0.62500000000000D-01  0.18750000000000D+00
            0.37500000000000D+00  0.62500000000000D-01  0.18750000000000D+00
            0.43750000000000D+00  0.62500000000000D-01  0.18750000000000D+00
            0.50000000000000D+00  0.62500000000000D-01  0.18750000000000D+00
           -0.43750000000000D+00  0.62500000000000D-01  0.18750000000000D+00
           -0.37500000000000D+00  0.62500000000000D-01  0.18750000000000D+00
           -0.31250000000000D+00  0.62500000000000D-01  0.18750000000000D+00
           -0.25000000000000D+00  0.62500000000000D-01  0.18750000000000D+00
           -0.18750000000000D+00  0.62500000000000D-01  0.18750000000000D+00
           -0.12500000000000D+00  0.62500000000000D-01  0.18750000000000D+00
           -0.62500000000000D-01  0.62500000000000D-01  0.18750000000000D+00
            0.00000000000000D+00  0.12500000000000D+00  0.18750000000000D+00
            0.62500000000000D-01  0.12500000000000D+00  0.18750000000000D+00
            0.12500000000000D+00  0.12500000000000D+00  0.18750000000000D+00
            0.18750000000000D+00  0.12500000000000D+00  0.18750000000000D+00
            0.25000000000000D+00  0.12500000000000D+00  0.18750000000000D+00
            0.31250000000000D+00  0.12500000000000D+00  0.18750000000000D+00
            0.37500000000000D+00  0.12500000000000D+00  0.18750000000000D+00
            0.43750000000000D+00  0.12500000000000D+00  0.18750000000000D+00
            0.50000000000000D+00  0.12500000000000D+00  0.18750000000000D+00
           -0.43750000000000D+00  0.12500000000000D+00  0.18750000000000D+00
           -0.37500000000000D+00  0.12500000000000D+00  0.18750000000000D+00
           -0.31250000000000D+00  0.12500000000000D+00  0.18750000000000D+00
           -0.25000000000000D+00  0.12500000000000D+00  0.18750000000000D+00
           -0.18750000000000D+00  0.12500000000000D+00  0.18750000000000D+00
           -0.12500000000000D+00  0.12500000000000D+00  0.18750000000000D+00
           -0.62500000000000D-01  0.12500000000000D+00  0.18750000000000D+00
            0.00000000000000D+00  0.18750000000000D+00  0.18750000000000D+00
            0.62500000000000D-01  0.18750000000000D+00  0.18750000000000D+00
            0.12500000000000D+00  0.18750000000000D+00  0.18750000000000D+00
            0.18750000000000D+00  0.18750000000000D+00  0.18750000000000D+00
            0.25000000000000D+00  0.18750000000000D+00  0.18750000000000D+00
            0.31250000000000D+00  0.18750000000000D+00  0.18750000000000D+00
            0.37500000000000D+00  0.18750000000000D+00  0.18750000000000D+00
            0.43750000000000D+00  0.18750000000000D+00  0.18750000000000D+00
            0.50000000000000D+00  0.18750000000000D+00  0.18750000000000D+00
           -0.43750000000000D+00  0.18750000000000D+00  0.18750000000000D+00
           -0.37500000000000D+00  0.18750000000000D+00  0.18750000000000D+00
           -0.31250000000000D+00  0.18750000000000D+00  0.18750000000000D+00
           -0.25000000000000D+00  0.18750000000000D+00  0.18750000000000D+00
           -0.18750000000000D+00  0.18750000000000D+00  0.18750000000000D+00
           -0.12500000000000D+00  0.18750000000000D+00  0.18750000000000D+00
           -0.62500000000000D-01  0.18750000000000D+00  0.18750000000000D+00
            0.00000000000000D+00  0.25000000000000D+00  0.18750000000000D+00
            0.62500000000000D-01  0.25000000000000D+00  0.18750000000000D+00
            0.12500000000000D+00  0.25000000000000D+00  0.18750000000000D+00
            0.18750000000000D+00  0.25000000000000D+00  0.18750000000000D+00
            0.25000000000000D+00  0.25000000000000D+00  0.18750000000000D+00
            0.31250000000000D+00  0.25000000000000D+00  0.18750000000000D+00
            0.37500000000000D+00  0.25000000000000D+00  0.18750000000000D+00
            0.43750000000000D+00  0.25000000000000D+00  0.18750000000000D+00
            0.50000000000000D+00  0.25000000000000D+00  0.18750000000000D+00
           -0.43750000000000D+00  0.25000000000000D+00  0.18750000000000D+00
           -0.37500000000000D+00  0.25000000000000D+00  0.18750000000000D+00
           -0.31250000000000D+00  0.25000000000000D+00  0.18750000000000D+00
           -0.25000000000000D+00  0.25000000000000D+00  0.18750000000000D+00
           -0.18750000000000D+00  0.25000000000000D+00  0.18750000000000D+00
           -0.12500000000000D+00  0.25000000000000D+00  0.18750000000000D+00
           -0.62500000000000D-01  0.25000000000000D+00  0.18750000000000D+00
            0.00000000000000D+00  0.31250000000000D+00  0.18750000000000D+00
            0.62500000000000D-01  0.31250000000000D+00  0.18750000000000D+00
            0.12500000000000D+00  0.31250000000000D+00  0.18750000000000D+00
            0.18750000000000D+00  0.31250000000000D+00  0.18750000000000D+00
            0.25000000000000D+00  0.31250000000000D+00  0.18750000000000D+00
            0.31250000000000D+00  0.31250000000000D+00  0.18750000000000D+00
            0.37500000000000D+00  0.31250000000000D+00  0.18750000000000D+00
            0.43750000000000D+00  0.31250000000000D+00  0.18750000000000D+00
            0.50000000000000D+00  0.31250000000000D+00  0.18750000000000D+00
           -0.43750000000000D+00  0.31250000000000D+00  0.18750000000000D+00
           -0.37500000000000D+00  0.31250000000000D+00  0.18750000000000D+00
           -0.31250000000000D+00  0.31250000000000D+00  0.18750000000000D+00
           -0.25000000000000D+00  0.31250000000000D+00  0.18750000000000D+00
           -0.18750000000000D+00  0.31250000000000D+00  0.18750000000000D+00
           -0.12500000000000D+00  0.31250000000000D+00  0.18750000000000D+00
           -0.62500000000000D-01  0.31250000000000D+00  0.18750000000000D+00
            0.00000000000000D+00  0.37500000000000D+00  0.18750000000000D+00
            0.62500000000000D-01  0.37500000000000D+00  0.18750000000000D+00
            0.12500000000000D+00  0.37500000000000D+00  0.18750000000000D+00
            0.18750000000000D+00  0.37500000000000D+00  0.18750000000000D+00
            0.25000000000000D+00  0.37500000000000D+00  0.18750000000000D+00
            0.31250000000000D+00  0.37500000000000D+00  0.18750000000000D+00
            0.37500000000000D+00  0.37500000000000D+00  0.18750000000000D+00
            0.43750000000000D+00  0.37500000000000D+00  0.18750000000000D+00
            0.50000000000000D+00  0.37500000000000D+00  0.18750000000000D+00
           -0.43750000000000D+00  0.37500000000000D+00  0.18750000000000D+00
           -0.37500000000000D+00  0.37500000000000D+00  0.18750000000000D+00
           -0.31250000000000D+00  0.37500000000000D+00  0.18750000000000D+00
           -0.25000000000000D+00  0.37500000000000D+00  0.18750000000000D+00
           -0.18750000000000D+00  0.37500000000000D+00  0.18750000000000D+00
           -0.12500000000000D+00  0.37500000000000D+00  0.18750000000000D+00
           -0.62500000000000D-01  0.37500000000000D+00  0.18750000000000D+00
            0.00000000000000D+00  0.43750000000000D+00  0.18750000000000D+00
            0.62500000000000D-01  0.43750000000000D+00  0.18750000000000D+00
            0.12500000000000D+00  0.43750000000000D+00  0.18750000000000D+00
            0.18750000000000D+00  0.43750000000000D+00  0.18750000000000D+00
            0.25000000000000D+00  0.43750000000000D+00  0.18750000000000D+00
            0.31250000000000D+00  0.43750000000000D+00  0.18750000000000D+00
            0.37500000000000D+00  0.43750000000000D+00  0.18750000000000D+00
            0.43750000000000D+00  0.43750000000000D+00  0.18750000000000D+00
            0.50000000000000D+00  0.43750000000000D+00  0.18750000000000D+00
           -0.43750000000000D+00  0.43750000000000D+00  0.18750000000000D+00
           -0.37500000000000D+00  0.43750000000000D+00  0.18750000000000D+00
           -0.31250000000000D+00  0.43750000000000D+00  0.18750000000000D+00
           -0.25000000000000D+00  0.43750000000000D+00  0.18750000000000D+00
           -0.18750000000000D+00  0.43750000000000D+00  0.18750000000000D+00
           -0.12500000000000D+00  0.43750000000000D+00  0.18750000000000D+00
           -0.62500000000000D-01  0.43750000000000D+00  0.18750000000000D+00
            0.00000000000000D+00  0.50000000000000D+00  0.18750000000000D+00
            0.62500000000000D-01  0.50000000000000D+00  0.18750000000000D+00
            0.12500000000000D+00  0.50000000000000D+00  0.18750000000000D+00
            0.18750000000000D+00  0.50000000000000D+00  0.18750000000000D+00
            0.25000000000000D+00  0.50000000000000D+00  0.18750000000000D+00
            0.31250000000000D+00  0.50000000000000D+00  0.18750000000000D+00
            0.37500000000000D+00  0.50000000000000D+00  0.18750000000000D+00
            0.43750000000000D+00  0.50000000000000D+00  0.18750000000000D+00
            0.50000000000000D+00  0.50000000000000D+00  0.18750000000000D+00
           -0.43750000000000D+00  0.50000000000000D+00  0.18750000000000D+00
           -0.37500000000000D+00  0.50000000000000D+00  0.18750000000000D+00
           -0.31250000000000D+00  0.50000000000000D+00  0.18750000000000D+00
           -0.25000000000000D+00  0.50000000000000D+00  0.18750000000000D+00
           -0.18750000000000D+00  0.50000000000000D+00  0.18750000000000D+00
           -0.12500000000000D+00  0.50000000000000D+00  0.18750000000000D+00
           -0.62500000000000D-01  0.50000000000000D+00  0.18750000000000D+00
            0.00000000000000D+00 -0.43750000000000D+00  0.18750000000000D+00
            0.62500000000000D-01 -0.43750000000000D+00  0.18750000000000D+00
            0.12500000000000D+00 -0.43750000000000D+00  0.18750000000000D+00
            0.18750000000000D+00 -0.43750000000000D+00  0.18750000000000D+00
            0.25000000000000D+00 -0.43750000000000D+00  0.18750000000000D+00
            0.31250000000000D+00 -0.43750000000000D+00  0.18750000000000D+00
            0.37500000000000D+00 -0.43750000000000D+00  0.18750000000000D+00
            0.43750000000000D+00 -0.43750000000000D+00  0.18750000000000D+00
            0.50000000000000D+00 -0.43750000000000D+00  0.18750000000000D+00
           -0.43750000000000D+00 -0.43750000000000D+00  0.18750000000000D+00
           -0.37500000000000D+00 -0.43750000000000D+00  0.18750000000000D+00
           -0.31250000000000D+00 -0.43750000000000D+00  0.18750000000000D+00
           -0.25000000000000D+00 -0.43750000000000D+00  0.18750000000000D+00
           -0.18750000000000D+00 -0.43750000000000D+00  0.18750000000000D+00
           -0.12500000000000D+00 -0.43750000000000D+00  0.18750000000000D+00
           -0.62500000000000D-01 -0.43750000000000D+00  0.18750000000000D+00
            0.00000000000000D+00 -0.37500000000000D+00  0.18750000000000D+00
            0.62500000000000D-01 -0.37500000000000D+00  0.18750000000000D+00
            0.12500000000000D+00 -0.37500000000000D+00  0.18750000000000D+00
            0.18750000000000D+00 -0.37500000000000D+00  0.18750000000000D+00
            0.25000000000000D+00 -0.37500000000000D+00  0.18750000000000D+00
            0.31250000000000D+00 -0.37500000000000D+00  0.18750000000000D+00
            0.37500000000000D+00 -0.37500000000000D+00  0.18750000000000D+00
            0.43750000000000D+00 -0.37500000000000D+00  0.18750000000000D+00
            0.50000000000000D+00 -0.37500000000000D+00  0.18750000000000D+00
           -0.43750000000000D+00 -0.37500000000000D+00  0.18750000000000D+00
           -0.37500000000000D+00 -0.37500000000000D+00  0.18750000000000D+00
           -0.31250000000000D+00 -0.37500000000000D+00  0.18750000000000D+00
           -0.25000000000000D+00 -0.37500000000000D+00  0.18750000000000D+00
           -0.18750000000000D+00 -0.37500000000000D+00  0.18750000000000D+00
           -0.12500000000000D+00 -0.37500000000000D+00  0.18750000000000D+00
           -0.62500000000000D-01 -0.37500000000000D+00  0.18750000000000D+00
            0.00000000000000D+00 -0.31250000000000D+00  0.18750000000000D+00
            0.62500000000000D-01 -0.31250000000000D+00  0.18750000000000D+00
            0.12500000000000D+00 -0.31250000000000D+00  0.18750000000000D+00
            0.18750000000000D+00 -0.31250000000000D+00  0.18750000000000D+00
            0.25000000000000D+00 -0.31250000000000D+00  0.18750000000000D+00
            0.31250000000000D+00 -0.31250000000000D+00  0.18750000000000D+00
            0.37500000000000D+00 -0.31250000000000D+00  0.18750000000000D+00
            0.43750000000000D+00 -0.31250000000000D+00  0.18750000000000D+00
            0.50000000000000D+00 -0.31250000000000D+00  0.18750000000000D+00
           -0.43750000000000D+00 -0.31250000000000D+00  0.18750000000000D+00
           -0.37500000000000D+00 -0.31250000000000D+00  0.18750000000000D+00
           -0.31250000000000D+00 -0.31250000000000D+00  0.18750000000000D+00
           -0.25000000000000D+00 -0.31250000000000D+00  0.18750000000000D+00
           -0.18750000000000D+00 -0.31250000000000D+00  0.18750000000000D+00
           -0.12500000000000D+00 -0.31250000000000D+00  0.18750000000000D+00
           -0.62500000000000D-01 -0.31250000000000D+00  0.18750000000000D+00
            0.00000000000000D+00 -0.25000000000000D+00  0.18750000000000D+00
            0.62500000000000D-01 -0.25000000000000D+00  0.18750000000000D+00
            0.12500000000000D+00 -0.25000000000000D+00  0.18750000000000D+00
            0.18750000000000D+00 -0.25000000000000D+00  0.18750000000000D+00
            0.25000000000000D+00 -0.25000000000000D+00  0.18750000000000D+00
            0.31250000000000D+00 -0.25000000000000D+00  0.18750000000000D+00
            0.37500000000000D+00 -0.25000000000000D+00  0.18750000000000D+00
            0.43750000000000D+00 -0.25000000000000D+00  0.18750000000000D+00
            0.50000000000000D+00 -0.25000000000000D+00  0.18750000000000D+00
           -0.43750000000000D+00 -0.25000000000000D+00  0.18750000000000D+00
           -0.37500000000000D+00 -0.25000000000000D+00  0.18750000000000D+00
           -0.31250000000000D+00 -0.25000000000000D+00  0.18750000000000D+00
           -0.25000000000000D+00 -0.25000000000000D+00  0.18750000000000D+00
           -0.18750000000000D+00 -0.25000000000000D+00  0.18750000000000D+00
           -0.12500000000000D+00 -0.25000000000000D+00  0.18750000000000D+00
           -0.62500000000000D-01 -0.25000000000000D+00  0.18750000000000D+00
            0.00000000000000D+00 -0.18750000000000D+00  0.18750000000000D+00
            0.62500000000000D-01 -0.18750000000000D+00  0.18750000000000D+00
            0.12500000000000D+00 -0.18750000000000D+00  0.18750000000000D+00
            0.18750000000000D+00 -0.18750000000000D+00  0.18750000000000D+00
            0.25000000000000D+00 -0.18750000000000D+00  0.18750000000000D+00
            0.31250000000000D+00 -0.18750000000000D+00  0.18750000000000D+00
            0.37500000000000D+00 -0.18750000000000D+00  0.18750000000000D+00
            0.43750000000000D+00 -0.18750000000000D+00  0.18750000000000D+00
            0.50000000000000D+00 -0.18750000000000D+00  0.18750000000000D+00
           -0.43750000000000D+00 -0.18750000000000D+00  0.18750000000000D+00
           -0.37500000000000D+00 -0.18750000000000D+00  0.18750000000000D+00
           -0.31250000000000D+00 -0.18750000000000D+00  0.18750000000000D+00
           -0.25000000000000D+00 -0.18750000000000D+00  0.18750000000000D+00
           -0.18750000000000D+00 -0.18750000000000D+00  0.18750000000000D+00
           -0.12500000000000D+00 -0.18750000000000D+00  0.18750000000000D+00
           -0.62500000000000D-01 -0.18750000000000D+00  0.18750000000000D+00
            0.00000000000000D+00 -0.12500000000000D+00  0.18750000000000D+00
            0.62500000000000D-01 -0.12500000000000D+00  0.18750000000000D+00
            0.12500000000000D+00 -0.12500000000000D+00  0.18750000000000D+00
            0.18750000000000D+00 -0.12500000000000D+00  0.18750000000000D+00
            0.25000000000000D+00 -0.12500000000000D+00  0.18750000000000D+00
            0.31250000000000D+00 -0.12500000000000D+00  0.18750000000000D+00
            0.37500000000000D+00 -0.12500000000000D+00  0.18750000000000D+00
            0.43750000000000D+00 -0.12500000000000D+00  0.18750000000000D+00
            0.50000000000000D+00 -0.12500000000000D+00  0.18750000000000D+00
           -0.43750000000000D+00 -0.12500000000000D+00  0.18750000000000D+00
           -0.37500000000000D+00 -0.12500000000000D+00  0.18750000000000D+00
           -0.31250000000000D+00 -0.12500000000000D+00  0.18750000000000D+00
           -0.25000000000000D+00 -0.12500000000000D+00  0.18750000000000D+00
           -0.18750000000000D+00 -0.12500000000000D+00  0.18750000000000D+00
           -0.12500000000000D+00 -0.12500000000000D+00  0.18750000000000D+00
           -0.62500000000000D-01 -0.12500000000000D+00  0.18750000000000D+00
            0.00000000000000D+00 -0.62500000000000D-01  0.18750000000000D+00
            0.62500000000000D-01 -0.62500000000000D-01  0.18750000000000D+00
            0.12500000000000D+00 -0.62500000000000D-01  0.18750000000000D+00
            0.18750000000000D+00 -0.62500000000000D-01  0.18750000000000D+00
            0.25000000000000D+00 -0.62500000000000D-01  0.18750000000000D+00
            0.31250000000000D+00 -0.62500000000000D-01  0.18750000000000D+00
            0.37500000000000D+00 -0.62500000000000D-01  0.18750000000000D+00
            0.43750000000000D+00 -0.62500000000000D-01  0.18750000000000D+00
            0.50000000000000D+00 -0.62500000000000D-01  0.18750000000000D+00
           -0.43750000000000D+00 -0.62500000000000D-01  0.18750000000000D+00
           -0.37500000000000D+00 -0.62500000000000D-01  0.18750000000000D+00
           -0.31250000000000D+00 -0.62500000000000D-01  0.18750000000000D+00
           -0.25000000000000D+00 -0.62500000000000D-01  0.18750000000000D+00
           -0.18750000000000D+00 -0.62500000000000D-01  0.18750000000000D+00
           -0.12500000000000D+00 -0.62500000000000D-01  0.18750000000000D+00
           -0.62500000000000D-01 -0.62500000000000D-01  0.18750000000000D+00
            0.00000000000000D+00  0.00000000000000D+00  0.25000000000000D+00
            0.62500000000000D-01  0.00000000000000D+00  0.25000000000000D+00
            0.12500000000000D+00  0.00000000000000D+00  0.25000000000000D+00
            0.18750000000000D+00  0.00000000000000D+00  0.25000000000000D+00
            0.25000000000000D+00  0.00000000000000D+00  0.25000000000000D+00
            0.31250000000000D+00  0.00000000000000D+00  0.25000000000000D+00
            0.37500000000000D+00  0.00000000000000D+00  0.25000000000000D+00
[...]
   2   1   2   1  0.71721759471557D+01 -0.25875141221390D-06
   3   1   2   1  0.34711930104086D+01  0.59697018366736D-16
   1   2   2   1 -0.32705795412913D+01  0.10617495724265D-14
   2   2   2   1 -0.52322733626523D+01 -0.19955716247697D+01
   3   2   2   1 -0.31438523058003D+01  0.46532734647519D-15
   1   1   3   1  0.34711930104086D+01 -0.97137931697044D-17
   2   1   3   1  0.34711930104086D+01  0.59697018366736D-16
   3   1   3   1  0.69423860208173D+01 -0.10691353717757D-16
   1   2   3   1 -0.31438523058003D+01  0.34553490323955D-15
   2   2   3   1 -0.31438523058003D+01  0.46532734647519D-15
   3   2   3   1 -0.62877046116006D+01  0.41474050779561D-15
   1   1   1   2 -0.52322733626523D+01 -0.19955716247697D+01
   2   1   1   2 -0.32705795412913D+01 -0.99494316636903D-15
   3   1   1   2 -0.31438523058003D+01 -0.34553490323955D-15
   1   2   1   2  0.71721759471558D+01 -0.25875141217696D-06
   2   2   1   2  0.34910978245880D+01  0.12897930318700D+00
   3   2   1   2  0.34711930104086D+01 -0.97137931697044D-17
   1   1   2   2 -0.32705829062088D+01 -0.10627270691701D-14
   2   1   2   2 -0.52322733626523D+01  0.19955716247697D+01
   3   1   2   2 -0.31438523058003D+01 -0.46532734647519D-15
   1   2   2   2  0.34910978245880D+01 -0.12897930318700D+00
   2   2   2   2  0.71721759471630D+01  0.25875141196636D-06
   3   2   2   2  0.34711930104086D+01  0.59697018366736D-16
   1   1   3   2 -0.31438523058003D+01 -0.34553490323955D-15
   2   1   3   2 -0.31438523058003D+01 -0.46532734647519D-15
   3   1   3   2 -0.62877046116006D+01 -0.41474050779561D-15
   1   2   3   2  0.34711930104086D+01 -0.97137931697044D-17
   2   2   3   2  0.34711930104086D+01  0.59697018366736D-16
   3   2   3   2  0.69423860208173D+01 -0.10691353717757D-16
  
 2nd derivatives (non-stat.)  - # elements :      36
 qpt  3.33333333E-01  3.33333333E-01  0.00000000E+00   1.0
   1   1   1   1  0.76408876201636D+01  0.55491969461734D-18
   2   1   1   1  0.43903739141634D+01  0.21784604362466D-16
   3   1   1   1  0.32505137060212D+01 -0.49121466593181D-16
   1   2   1   1 -0.17003359035408D+01 -0.29450681748662D+01
   2   2   1   1 -0.28208860392481D+01 -0.43778231116403D+00
   3   2   1   1 -0.27316483203693D+01 -0.28321804811449D+00
   1   1   2   1  0.43903739141634D+01  0.21784604362466D-16
   2   1   2   1  0.76408876201635D+01  0.91715796500898D-16
   3   1   2   1  0.32505137060212D+01 -0.10357641359568D-16
   1   2   2   1 -0.28208860392481D+01 -0.43778231116403D+00
   2   2   2   1 -0.17003359035408D+01 -0.29450681748662D+01
   3   2   2   1 -0.27316483203693D+01 -0.28321804811449D+00
   1   1   3   1  0.32505137060212D+01 -0.49121466593181D-16
   2   1   3   1  0.32505137060212D+01 -0.10357641359568D-16
   3   1   3   1  0.65010274120424D+01 -0.26231251240328D-16
   1   2   3   1 -0.27316483203693D+01 -0.28321804811449D+00
   2   2   3   1 -0.27316483203693D+01 -0.28321804811449D+00
   3   2   3   1 -0.54632966407386D+01 -0.56643609622897D+00
   1   1   1   2 -0.17003359035408D+01  0.29450681748662D+01
   2   1   1   2 -0.28208860392481D+01  0.43778231116403D+00
   3   1   1   2 -0.27316483203693D+01  0.28321804811449D+00
   1   2   1   2  0.76408876201636D+01  0.55491969461734D-18
   2   2   1   2  0.43903739141423D+01  0.21784604362466D-16
   3   2   1   2  0.32505137060002D+01 -0.49121466593181D-16
   1   1   2   2 -0.28208860392481D+01  0.43778231116403D+00
   2   1   2   2 -0.17003359035408D+01  0.29450681748662D+01
   3   1   2   2 -0.27316483203693D+01  0.28321804811449D+00
   1   2   2   2  0.43903739141423D+01  0.21784604362466D-16
   2   2   2   2  0.76408876201636D+01  0.91715796500898D-16
   3   2   2   2  0.32505137060002D+01 -0.10357641359568D-16
   1   1   3   2 -0.27316483203693D+01  0.28321804811449D+00
   2   1   3   2 -0.27316483203693D+01  0.28321804811449D+00
   3   1   3   2 -0.54632966407386D+01  0.56643609622897D+00
   1   2   3   2  0.32505137060001D+01 -0.49121466593181D-16
   2   2   3   2  0.32505137060002D+01 -0.10357641359568D-16
   3   2   3   2  0.65010274120003D+01 -0.26231251240328D-16
  
 2nd derivatives (non-stat.)  - # elements :      36
 qpt  5.00000000E-01  3.33333333E-01  0.00000000E+00   1.0
   1   1   1   1  0.76042093588229D+01 -0.29910226528188D-07
   2   1   1   1  0.42158801846155D+01 -0.19820690828730D+00
   3   1   1   1  0.32290462102850D+01 -0.25800211866207D-16
   1   2   1   1 -0.43595210729432D+00 -0.43244527833862D+00
   2   2   1   1 -0.28932064235581D+01 -0.16701087724824D+00
   3   2   1   1 -0.26933868094774D+01 -0.14981187771631D+00
   1   1   2   1  0.42158802350346D+01  0.19820709306686D+00
   2   1   2   1  0.74579719131115D+01 -0.37305228775638D-07
   3   1   2   1  0.32290462102850D+01  0.52703672079695D-16
   1   2   2   1 -0.28932064732477D+01 -0.16701121224628D+00
   2   2   2   1 -0.16122613660935D+01 -0.23722838002716D+01
   3   2   2   1 -0.26933868094774D+01 -0.14981187771631D+00
   1   1   3   1  0.32290462102850D+01 -0.25800211866207D-16
   2   1   3   1  0.32290462102850D+01  0.52703672079695D-16
   3   1   3   1  0.64580924205700D+01  0.72697538509391D-17
   1   2   3   1 -0.26933868094774D+01 -0.14981187771631D+00
   2   2   3   1 -0.26933868094774D+01 -0.14981187771631D+00
   3   2   3   1 -0.53867736189548D+01 -0.29962375543262D+00
   1   1   1   2 -0.43595210729432D+00  0.43244527833862D+00
   2   1   1   2 -0.28932064732477D+01  0.16701121224628D+00
   3   1   1   2 -0.26933868094774D+01  0.14981187771631D+00
   1   2   1   2  0.76042093576299D+01  0.29910226594681D-07
   2   2   1   2  0.42158801840042D+01  0.19820690828730D+00
   3   2   1   2  0.32290462096717D+01 -0.25800211866207D-16
   1   1   2   2 -0.28932064235581D+01  0.16701087724823D+00
   2   1   2   2 -0.16122613660935D+01  0.23722838002716D+01
   3   1   2   2 -0.26933868094774D+01  0.14981187771631D+00
   1   2   2   2  0.42158802344233D+01 -0.19820709306686D+00
   2   2   2   2  0.74579719119348D+01  0.37305228702560D-07
   3   2   2   2  0.32290462096717D+01  0.52703672079695D-16
   1   1   3   2 -0.26933868094774D+01  0.14981187771631D+00
   2   1   3   2 -0.26933868094774D+01  0.14981187771631D+00
   3   1   3   2 -0.53867736189548D+01  0.29962375543262D+00
   1   2   3   2  0.32290462096716D+01 -0.25800211866207D-16
   2   2   3   2  0.32290462096716D+01  0.52703672079695D-16
   3   2   3   2  0.64580924193433D+01  0.72697538509391D-17
  
 2nd derivatives (non-stat.)  - # elements :      36
 qpt -3.33333333E-01  3.33333333E-01  0.00000000E+00   1.0
   1   1   1   1  0.73212682569596D+01 -0.13940655261173D-06
   2   1   1   1  0.38439862528257D+01 -0.21082069244012D+00
   3   1   1   1  0.32644267691292D+01 -0.40308684529368D-16
   1   2   1   1 -0.19150615552187D+01  0.20908524743202D+01
   2   2   1   1 -0.30011206915172D+01  0.20590929556613D-14
   3   2   1   1 -0.27052489790073D+01  0.94021439716988D-15
   1   1   2   1  0.38439862528257D+01  0.21082069244012D+00
   2   1   2   1  0.73212682569524D+01  0.13940655259558D-06
   3   1   2   1  0.32644267691292D+01  0.10752251699165D-16
   1   2   2   1 -0.30011213537248D+01  0.20080714700038D-14
   2   2   2   1 -0.19150615552187D+01 -0.20908524743202D+01
   3   2   2   1 -0.27052489790074D+01  0.28483715073526D-15
   1   1   3   1  0.32644267691292D+01 -0.40308684529368D-16
   2   1   3   1  0.32644267691292D+01  0.10752251699165D-16
   3   1   3   1  0.65288535382585D+01 -0.37266131538199D-16
   1   2   3   1 -0.27052489790073D+01  0.94021434423032D-15
   2   2   3   1 -0.27052489790074D+01  0.28483720367482D-15
   3   2   3   1 -0.54104979580147D+01  0.27624547355590D-15
   1   1   1   2 -0.19150615552187D+01 -0.20908524743202D+01
   2   1   1   2 -0.30011213537248D+01 -0.19978244294137D-14
   3   1   1   2 -0.27052489790073D+01 -0.94021434423032D-15
   1   2   1   2  0.73212682569524D+01  0.13940655241074D-06
   2   2   1   2  0.38439862528257D+01  0.21082069244012D+00
   3   2   1   2  0.32644267691292D+01 -0.40308684529368D-16
   1   1   2   2 -0.30011206915172D+01 -0.19468029966958D-14
   2   1   2   2 -0.19150615552187D+01  0.20908524743202D+01
   3   1   2   2 -0.27052489790074D+01 -0.28483720367482D-15
   1   2   2   2  0.38439862528257D+01 -0.21082069244012D+00
   2   2   2   2  0.73212682569596D+01 -0.13940655242689D-06
   3   2   2   2  0.32644267691292D+01  0.10752251699165D-16
   1   1   3   2 -0.27052489790073D+01 -0.94021439716988D-15
   2   1   3   2 -0.27052489790074D+01 -0.28483715073526D-15
   3   1   3   2 -0.54104979580147D+01 -0.27624547355590D-15
   1   2   3   2  0.32644267691292D+01 -0.40308684529368D-16
   2   2   3   2  0.32644267691292D+01  0.10752251699165D-16
   3   2   3   2  0.65288535382585D+01 -0.37266131538199D-16
  
 2nd derivatives (non-stat.)  - # elements :      36
 qpt  5.00000000E-01  5.00000000E-01  0.00000000E+00   1.0
   1   1   1   1  0.78264347950523D+01  0.00000000000000D+00
   2   1   1   1  0.46247251922288D+01  0.00000000000000D+00
   3   1   1   1  0.32017096028235D+01  0.00000000000000D+00
   1   2   1   1 -0.28503713144089D-14 -0.97620520480798D-15
   2   2   1   1 -0.26801352376706D+01 -0.68720729014105D-09
   3   2   1   1 -0.26801352376706D+01 -0.68720742723366D-09
   1   1   2   1  0.46247251922288D+01  0.00000000000000D+00
   2   1   2   1  0.78264347950523D+01  0.00000000000000D+00
   3   1   2   1  0.32017096028235D+01  0.00000000000000D+00
   1   2   2   1 -0.26801352376706D+01 -0.68720729014105D-09
   2   2   2   1 -0.33613404649636D-14 -0.40986423211586D-15
   3   2   2   1 -0.26801352376706D+01 -0.68720742974242D-09
   1   1   3   1  0.32017096028235D+01  0.00000000000000D+00
   2   1   3   1  0.32017096028235D+01  0.00000000000000D+00
   3   1   3   1  0.64034192056470D+01  0.00000000000000D+00
   1   2   3   1 -0.26801352376706D+01 -0.68720742723366D-09
   2   2   3   1 -0.26801352376706D+01 -0.68720742974242D-09
   3   2   3   1 -0.53602704753411D+01 -0.13744148605566D-08
   1   1   1   2 -0.28503713144089D-14  0.97620520488553D-15
   2   1   1   2 -0.26801352376706D+01 -0.68720856093587D-09
   3   1   1   2 -0.26801352376706D+01 -0.68720842384326D-09
   1   2   1   2  0.78264347950523D+01  0.00000000000000D+00
   2   2   1   2  0.46247251922288D+01  0.00000000000000D+00
   3   2   1   2  0.32017096028235D+01  0.00000000000000D+00
   1   1   2   2 -0.26801352376706D+01 -0.68720856093587D-09
   2   1   2   2 -0.33613404649636D-14  0.40986423211586D-15
   3   1   2   2 -0.26801352376706D+01 -0.68720842133449D-09
   1   2   2   2  0.46247251922288D+01  0.00000000000000D+00
   2   2   2   2  0.78264347950523D+01  0.00000000000000D+00
   3   2   2   2  0.32017096028235D+01  0.00000000000000D+00
   1   1   3   2 -0.26801352376706D+01 -0.68720842384326D-09
   2   1   3   2 -0.26801352376706D+01 -0.68720842133450D-09
   3   1   3   2 -0.53602704753411D+01 -0.13744168415973D-08
   1   2   3   2  0.32017096028235D+01  0.00000000000000D+00
   2   2   3   2  0.32017096028235D+01  0.00000000000000D+00
   3   2   3   2  0.64034192056470D+01  0.00000000000000D+00
  
 2nd derivatives (non-stat.)  - # elements :      36
 qpt  5.00000000E-01  3.33333333E-01  1.66666667E-01   1.0
   1   1   1   1  0.73528089295187D+01  0.44672938111158D-17
   2   1   1   1  0.39573999783113D+01 -0.18871177506268D+00
   3   1   1   1  0.33954089512261D+01 -0.18871177506268D+00
   1   2   1   1 -0.13403355153258D-14 -0.81884318868902D+00
   2   2   1   1 -0.24767299432888D+01 -0.44992111376595D+00
   3   2   1   1 -0.24767316402269D+01 -0.36892369628276D+00
   1   1   2   1  0.39573999331441D+01  0.18871178102063D+00
   2   1   2   1  0.73402552823079D+01 -0.59579482162033D-08
   3   1   2   1  0.35753576382445D+01 -0.16624134895512D+00
   1   2   2   1 -0.24767316402269D+01 -0.44991949240625D+00
   2   2   2   1 -0.12135651569019D+01 -0.29475349920142D+01
   3   2   2   1 -0.24767316402269D+01 -0.47397194925738D+00
   1   1   3   1  0.33954089963932D+01  0.18871178102063D+00
   2   1   3   1  0.35753576834117D+01  0.16624135491306D+00
   3   1   3   1  0.67782643004121D+01  0.11915896071970D-07
   1   2   3   1 -0.24767299432887D+01 -0.36892207492307D+00
   2   2   3   1 -0.24767299432887D+01 -0.47397032789768D+00
   3   2   3   1 -0.37398964266137D+01 -0.28665375745310D+01
   1   1   1   2 -0.13403355153258D-14  0.81884318868902D+00
   2   1   1   2 -0.24767316402269D+01  0.44991949240625D+00
   3   1   1   2 -0.24767299432887D+01  0.36892207492307D+00
   1   2   1   2  0.73528089295187D+01  0.44672938111158D-17
   2   2   1   2  0.39573999782926D+01  0.18871177506268D+00
   3   2   1   2  0.33954089512074D+01  0.18871177506268D+00
   1   1   2   2 -0.24767299432888D+01  0.44992111376595D+00
   2   1   2   2 -0.12135651569019D+01  0.29475349920142D+01
   3   1   2   2 -0.24767299432887D+01  0.47397032789768D+00
   1   2   2   2  0.39573999331255D+01 -0.18871178102063D+00
   2   2   2   2  0.73402552823116D+01  0.59579479151511D-08
   3   2   2   2  0.35753576382259D+01  0.16624134895512D+00
   1   1   3   2 -0.24767316402269D+01  0.36892369628277D+00
   2   1   3   2 -0.24767316402269D+01  0.47397194925738D+00
   3   1   3   2 -0.37398964266137D+01  0.28665375745310D+01
   1   2   3   2  0.33954089963745D+01 -0.18871178102063D+00
   2   2   3   2  0.35753576833930D+01 -0.16624135491306D+00
   3   2   3   2  0.67782643003712D+01 -0.11915896189871D-07
  
 2nd derivatives (non-stat.)  - # elements :      36
 qpt -3.33333333E-01  3.33333333E-01  1.66666667E-01   1.0
   1   1   1   1  0.70823202778015D+01  0.25508726549654D-06
   2   1   1   1  0.36111509773206D+01 -0.22127900850717D+00
   3   1   1   1  0.32338899141936D+01 -0.19866137495467D+00
   1   2   1   1 -0.14481558555650D+01  0.17487391093724D+01
   2   2   1   1 -0.26068678466793D+01 -0.25820893057691D+00
   3   2   1   1 -0.25126255524066D+01 -0.20324138704045D+00
   1   1   2   1  0.36111509773205D+01  0.22127951868170D+00
   2   1   2   1  0.72223019546416D+01 -0.26709931270202D-16
   3   1   2   1  0.36111509773465D+01 -0.17604374140217D+00
   1   2   2   1 -0.26068706385761D+01 -0.25821376628400D+00
   2   2   2   1 -0.15270522086001D+01 -0.26449320111056D+01
   3   2   2   1 -0.25131115418251D+01 -0.31234437979554D+00
   1   1   3   1  0.32338897396192D+01  0.19866166490809D+00
   2   1   3   1  0.36111509773465D+01  0.17604381113447D+00
   3   1   3   1  0.68037744762667D+01  0.34866150679204D-07
   1   2   3   1 -0.25126276699305D+01 -0.20324139072408D+00
   2   2   3   1 -0.25131098118804D+01 -0.31234138344334D+00
   3   2   3   1 -0.38434035660770D+01 -0.26164777547034D+01
   1   1   1   2 -0.14481558555650D+01 -0.17487391093724D+01
   2   1   1   2 -0.26068706385761D+01  0.25821376628400D+00
   3   1   1   2 -0.25126276699305D+01  0.20324139072408D+00
   1   2   1   2  0.70823202778019D+01 -0.25508726554196D-06
   2   2   1   2  0.36111509773210D+01  0.22127900850717D+00
   3   2   1   2  0.32338899141682D+01  0.19866137495467D+00
   1   1   2   2 -0.26068678466793D+01  0.25820893057691D+00
   2   1   2   2 -0.15270522086001D+01  0.26449320111056D+01
   3   1   2   2 -0.25131098118804D+01  0.31234138344334D+00
   1   2   2   2  0.36111509773210D+01 -0.22127951868170D+00
   2   2   2   2  0.72223019546416D+01 -0.26709931270202D-16
   3   2   2   2  0.36111509772951D+01  0.17604374140217D+00
   1   1   3   2 -0.25126255524066D+01  0.20324138704045D+00
   2   1   3   2 -0.25131115418251D+01  0.31234437979553D+00
   3   1   3   2 -0.38434035660770D+01  0.26164777547034D+01
   1   2   3   2  0.32338897395938D+01 -0.19866166490809D+00
   2   2   3   2  0.36111509772951D+01 -0.17604381113447D+00
   3   2   3   2  0.68037744762152D+01 -0.34866150643570D-07
  
 2nd derivatives (non-stat.)  - # elements :      36
 qpt -3.33333333E-01  5.00000000E-01  1.66666667E-01   1.0
   1   1   1   1  0.72304694620933D+01 -0.44586389129483D-16
   2   1   1   1  0.40065683856460D+01 -0.20638911688615D+00
   3   1   1   1  0.32239010764458D+01 -0.20638911688615D+00
   1   2   1   1 -0.11487938719235D+01  0.19897693535953D+01
   2   2   1   1 -0.24976399487263D+01 -0.11550019433901D+00
   3   2   1   1 -0.24976411673144D+01 -0.11550089789116D+00
   1   1   2   1  0.40065683856459D+01  0.20638925202625D+00
   2   1   2   1  0.74170748354170D+01  0.13514009165599D-06
   3   1   2   1  0.34105064497711D+01 -0.20638911688615D+00
   1   2   2   1 -0.24976411673144D+01 -0.11550089789116D+00
   2   2   2   1 -0.29552110558082D-14  0.22130337590020D-14
   3   2   2   1 -0.24976411673144D+01 -0.11550089789116D+00
   1   1   3   1  0.32239010764458D+01  0.20638925202625D+00
   2   1   3   1  0.34105064497711D+01  0.20638925202625D+00
   3   1   3   1  0.66344075262184D+01  0.15217678487587D-16
   1   2   3   1 -0.24976399487263D+01 -0.11550019433901D+00
   2   2   3   1 -0.24976399487263D+01 -0.11550019433901D+00
   3   2   3   1 -0.38464872441172D+01 -0.22207704458255D+01
   1   1   1   2 -0.11487938719235D+01 -0.19897693535953D+01
   2   1   1   2 -0.24976411673144D+01  0.11550089789116D+00
   3   1   1   2 -0.24976399487263D+01  0.11550019433901D+00
   1   2   1   2  0.72304694620933D+01 -0.44586389129483D-16
   2   2   1   2  0.40065683856475D+01  0.20638911688615D+00
   3   2   1   2  0.32239010764473D+01  0.20638911688615D+00
   1   1   2   2 -0.24976399487263D+01  0.11550019433901D+00
   2   1   2   2 -0.29552102087752D-14 -0.21852781833864D-14
   3   1   2   2 -0.24976399487263D+01  0.11550019433901D+00
   1   2   2   2  0.40065683856475D+01 -0.20638925202625D+00
   2   2   2   2  0.74170748354202D+01 -0.13514009168985D-06
   3   2   2   2  0.34105064497727D+01  0.20638911688615D+00
   1   1   3   2 -0.24976411673144D+01  0.11550089789116D+00
   2   1   3   2 -0.24976411673144D+01  0.11550089789116D+00
   3   1   3   2 -0.38464872441172D+01  0.22207704458255D+01
   1   2   3   2  0.32239010764473D+01 -0.20638925202625D+00
   2   2   3   2  0.34105064497726D+01 -0.20638925202625D+00
   3   2   3   2  0.66344075262184D+01  0.15217678487587D-16

 List of bloks and their characteristics 
  
 Total energy                 - # elements :       1
  
 1st derivatives              - # elements :      12
  
 2nd derivatives (non-stat.)  - # elements :      60
 qpt  0.00000000E+00  0.00000000E+00  0.00000000E+00   1.0
  
 2nd derivatives (non-stat.)  - # elements :      36
 qpt  1.66666667E-01  0.00000000E+00  0.00000000E+00   1.0
  
 2nd derivatives (non-stat.)  - # elements :      36
 qpt  3.33333333E-01  0.00000000E+00  0.00000000E+00   1.0
  
 2nd derivatives (non-stat.)  - # elements :      36
 qpt  5.00000000E-01  0.00000000E+00  0.00000000E+00   1.0
  
 2nd derivatives (non-stat.)  - # elements :      36
 qpt  1.66666667E-01  1.66666667E-01  0.00000000E+00   1.0
  
 2nd derivatives (non-stat.)  - # elements :      36
 qpt  3.33333333E-01  1.66666667E-01  0.00000000E+00   1.0
  
 2nd derivatives (non-stat.)  - # elements :      36
 qpt  5.00000000E-01  1.66666667E-01  0.00000000E+00   1.0
  
 2nd derivatives (non-stat.)  - # elements :      36
 qpt -3.33333333E-01  1.66666667E-01  0.00000000E+00   1.0
  
 2nd derivatives (non-stat.)  - # elements :      36
 qpt -1.66666667E-01  1.66666667E-01  0.00000000E+00   1.0
  
 2nd derivatives (non-stat.)  - # elements :      36
 qpt  3.33333333E-01  3.33333333E-01  0.00000000E+00   1.0
  
 2nd derivatives (non-stat.)  - # elements :      36
 qpt  5.00000000E-01  3.33333333E-01  0.00000000E+00   1.0
  
 2nd derivatives (non-stat.)  - # elements :      36
 qpt -3.33333333E-01  3.33333333E-01  0.00000000E+00   1.0
  
 2nd derivatives (non-stat.)  - # elements :      36
 qpt  5.00000000E-01  5.00000000E-01  0.00000000E+00   1.0
  
 2nd derivatives (non-stat.)  - # elements :      36
 qpt  5.00000000E-01  3.33333333E-01  1.66666667E-01   1.0
  
 2nd derivatives (non-stat.)  - # elements :      36
 qpt -3.33333333E-01  3.33333333E-01  1.66666667E-01   1.0
  
 2nd derivatives (non-stat.)  - # elements :      36
 qpt -3.33333333E-01  5.00000000E-01  1.66666667E-01   1.0
