
 **** DERIVATIVE DATABASE ****    
+DDB, Version number    100401

 phonons on 6 6 4 mesh

    usepaw         1
     natom        12
      nkpt       864
    nsppol         1
      nsym        16
    ntypat         4
    occopt         7
     nband        80
     acell  0.73160747234668D+01  0.73160747234668D+01  0.22181605347812D+02
       amu  0.88905850000000D+02  0.13732700000000D+03  0.63546000000000D+02
            0.15999400000000D+02
   dilatmx  0.10000000000000D+01
      ecut  0.20212128968879D+02
 pawecutdg  0.40424257937759D+02
    ecutsm  0.00000000000000D+00
     intxc         0
      iscf         7
       ixc     -1012
       kpt  0.00000000000000D+00  0.00000000000000D+00  0.00000000000000D+00
            0.83333333333333D-01  0.00000000000000D+00  0.00000000000000D+00
            0.16666666666667D+00  0.00000000000000D+00  0.00000000000000D+00
            0.25000000000000D+00  0.00000000000000D+00  0.00000000000000D+00
            0.33333333333333D+00  0.00000000000000D+00  0.00000000000000D+00
            0.41666666666667D+00  0.00000000000000D+00  0.00000000000000D+00
            0.50000000000000D+00  0.00000000000000D+00  0.00000000000000D+00
           -0.41666666666667D+00  0.00000000000000D+00  0.00000000000000D+00
           -0.33333333333333D+00  0.00000000000000D+00  0.00000000000000D+00
           -0.25000000000000D+00  0.00000000000000D+00  0.00000000000000D+00
           -0.16666666666667D+00  0.00000000000000D+00  0.00000000000000D+00
           -0.83333333333333D-01  0.00000000000000D+00  0.00000000000000D+00
            0.00000000000000D+00  0.83333333333333D-01  0.00000000000000D+00
            0.83333333333333D-01  0.83333333333333D-01  0.00000000000000D+00
            0.16666666666667D+00  0.83333333333333D-01  0.00000000000000D+00
            0.25000000000000D+00  0.83333333333333D-01  0.00000000000000D+00
            0.33333333333333D+00  0.83333333333333D-01  0.00000000000000D+00
            0.41666666666667D+00  0.83333333333333D-01  0.00000000000000D+00
            0.50000000000000D+00  0.83333333333333D-01  0.00000000000000D+00
           -0.41666666666667D+00  0.83333333333333D-01  0.00000000000000D+00
           -0.33333333333333D+00  0.83333333333333D-01  0.00000000000000D+00
           -0.25000000000000D+00  0.83333333333333D-01  0.00000000000000D+00
           -0.16666666666667D+00  0.83333333333333D-01  0.00000000000000D+00
           -0.83333333333333D-01  0.83333333333333D-01  0.00000000000000D+00
            0.00000000000000D+00  0.16666666666667D+00  0.00000000000000D+00
            0.83333333333333D-01  0.16666666666667D+00  0.00000000000000D+00
            0.16666666666667D+00  0.16666666666667D+00  0.00000000000000D+00
            0.25000000000000D+00  0.16666666666667D+00  0.00000000000000D+00
            0.33333333333333D+00  0.16666666666667D+00  0.00000000000000D+00
            0.41666666666667D+00  0.16666666666667D+00  0.00000000000000D+00
            0.50000000000000D+00  0.16666666666667D+00  0.00000000000000D+00
           -0.41666666666667D+00  0.16666666666667D+00  0.00000000000000D+00
           -0.33333333333333D+00  0.16666666666667D+00  0.00000000000000D+00
           -0.25000000000000D+00  0.16666666666667D+00  0.00000000000000D+00
           -0.16666666666667D+00  0.16666666666667D+00  0.00000000000000D+00
           -0.83333333333333D-01  0.16666666666667D+00  0.00000000000000D+00
            0.00000000000000D+00  0.25000000000000D+00  0.00000000000000D+00
            0.83333333333333D-01  0.25000000000000D+00  0.00000000000000D+00
            0.16666666666667D+00  0.25000000000000D+00  0.00000000000000D+00
            0.25000000000000D+00  0.25000000000000D+00  0.00000000000000D+00
            0.33333333333333D+00  0.25000000000000D+00  0.00000000000000D+00
            0.41666666666667D+00  0.25000000000000D+00  0.00000000000000D+00
            0.50000000000000D+00  0.25000000000000D+00  0.00000000000000D+00
           -0.41666666666667D+00  0.25000000000000D+00  0.00000000000000D+00
           -0.33333333333333D+00  0.25000000000000D+00  0.00000000000000D+00
           -0.25000000000000D+00  0.25000000000000D+00  0.00000000000000D+00
           -0.16666666666667D+00  0.25000000000000D+00  0.00000000000000D+00
           -0.83333333333333D-01  0.25000000000000D+00  0.00000000000000D+00
            0.00000000000000D+00  0.33333333333333D+00  0.00000000000000D+00
            0.83333333333333D-01  0.33333333333333D+00  0.00000000000000D+00
            0.16666666666667D+00  0.33333333333333D+00  0.00000000000000D+00
            0.25000000000000D+00  0.33333333333333D+00  0.00000000000000D+00
            0.33333333333333D+00  0.33333333333333D+00  0.00000000000000D+00
            0.41666666666667D+00  0.33333333333333D+00  0.00000000000000D+00
            0.50000000000000D+00  0.33333333333333D+00  0.00000000000000D+00
           -0.41666666666667D+00  0.33333333333333D+00  0.00000000000000D+00
           -0.33333333333333D+00  0.33333333333333D+00  0.00000000000000D+00
           -0.25000000000000D+00  0.33333333333333D+00  0.00000000000000D+00
           -0.16666666666667D+00  0.33333333333333D+00  0.00000000000000D+00
           -0.83333333333333D-01  0.33333333333333D+00  0.00000000000000D+00
            0.00000000000000D+00  0.41666666666667D+00  0.00000000000000D+00
            0.83333333333333D-01  0.41666666666667D+00  0.00000000000000D+00
            0.16666666666667D+00  0.41666666666667D+00  0.00000000000000D+00
            0.25000000000000D+00  0.41666666666667D+00  0.00000000000000D+00
            0.33333333333333D+00  0.41666666666667D+00  0.00000000000000D+00
            0.41666666666667D+00  0.41666666666667D+00  0.00000000000000D+00
            0.50000000000000D+00  0.41666666666667D+00  0.00000000000000D+00
           -0.41666666666667D+00  0.41666666666667D+00  0.00000000000000D+00
           -0.33333333333333D+00  0.41666666666667D+00  0.00000000000000D+00
           -0.25000000000000D+00  0.41666666666667D+00  0.00000000000000D+00
           -0.16666666666667D+00  0.41666666666667D+00  0.00000000000000D+00
           -0.83333333333333D-01  0.41666666666667D+00  0.00000000000000D+00
            0.00000000000000D+00  0.50000000000000D+00  0.00000000000000D+00
            0.83333333333333D-01  0.50000000000000D+00  0.00000000000000D+00
            0.16666666666667D+00  0.50000000000000D+00  0.00000000000000D+00
            0.25000000000000D+00  0.50000000000000D+00  0.00000000000000D+00
            0.33333333333333D+00  0.50000000000000D+00  0.00000000000000D+00
            0.41666666666667D+00  0.50000000000000D+00  0.00000000000000D+00
            0.50000000000000D+00  0.50000000000000D+00  0.00000000000000D+00
           -0.41666666666667D+00  0.50000000000000D+00  0.00000000000000D+00
           -0.33333333333333D+00  0.50000000000000D+00  0.00000000000000D+00
           -0.25000000000000D+00  0.50000000000000D+00  0.00000000000000D+00
           -0.16666666666667D+00  0.50000000000000D+00  0.00000000000000D+00
           -0.83333333333333D-01  0.50000000000000D+00  0.00000000000000D+00
            0.00000000000000D+00 -0.41666666666667D+00  0.00000000000000D+00
            0.83333333333333D-01 -0.41666666666667D+00  0.00000000000000D+00
            0.16666666666667D+00 -0.41666666666667D+00  0.00000000000000D+00
            0.25000000000000D+00 -0.41666666666667D+00  0.00000000000000D+00
            0.33333333333333D+00 -0.41666666666667D+00  0.00000000000000D+00
            0.41666666666667D+00 -0.41666666666667D+00  0.00000000000000D+00
            0.50000000000000D+00 -0.41666666666667D+00  0.00000000000000D+00
           -0.41666666666667D+00 -0.41666666666667D+00  0.00000000000000D+00
           -0.33333333333333D+00 -0.41666666666667D+00  0.00000000000000D+00
           -0.25000000000000D+00 -0.41666666666667D+00  0.00000000000000D+00
           -0.16666666666667D+00 -0.41666666666667D+00  0.00000000000000D+00
           -0.83333333333333D-01 -0.41666666666667D+00  0.00000000000000D+00
            0.00000000000000D+00 -0.33333333333333D+00  0.00000000000000D+00
            0.83333333333333D-01 -0.33333333333333D+00  0.00000000000000D+00
            0.16666666666667D+00 -0.33333333333333D+00  0.00000000000000D+00
            0.25000000000000D+00 -0.33333333333333D+00  0.00000000000000D+00
            0.33333333333333D+00 -0.33333333333333D+00  0.00000000000000D+00
            0.41666666666667D+00 -0.33333333333333D+00  0.00000000000000D+00
            0.50000000000000D+00 -0.33333333333333D+00  0.00000000000000D+00
           -0.41666666666667D+00 -0.33333333333333D+00  0.00000000000000D+00
           -0.33333333333333D+00 -0.33333333333333D+00  0.00000000000000D+00
           -0.25000000000000D+00 -0.33333333333333D+00  0.00000000000000D+00
           -0.16666666666667D+00 -0.33333333333333D+00  0.00000000000000D+00
           -0.83333333333333D-01 -0.33333333333333D+00  0.00000000000000D+00
            0.00000000000000D+00 -0.25000000000000D+00  0.00000000000000D+00
            0.83333333333333D-01 -0.25000000000000D+00  0.00000000000000D+00
            0.16666666666667D+00 -0.25000000000000D+00  0.00000000000000D+00
            0.25000000000000D+00 -0.25000000000000D+00  0.00000000000000D+00
            0.33333333333333D+00 -0.25000000000000D+00  0.00000000000000D+00
            0.41666666666667D+00 -0.25000000000000D+00  0.00000000000000D+00
            0.50000000000000D+00 -0.25000000000000D+00  0.00000000000000D+00
           -0.41666666666667D+00 -0.25000000000000D+00  0.00000000000000D+00
           -0.33333333333333D+00 -0.25000000000000D+00  0.00000000000000D+00
           -0.25000000000000D+00 -0.25000000000000D+00  0.00000000000000D+00
           -0.16666666666667D+00 -0.25000000000000D+00  0.00000000000000D+00
           -0.83333333333333D-01 -0.25000000000000D+00  0.00000000000000D+00
            0.00000000000000D+00 -0.16666666666667D+00  0.00000000000000D+00
            0.83333333333333D-01 -0.16666666666667D+00  0.00000000000000D+00
            0.16666666666667D+00 -0.16666666666667D+00  0.00000000000000D+00
            0.25000000000000D+00 -0.16666666666667D+00  0.00000000000000D+00
            0.33333333333333D+00 -0.16666666666667D+00  0.00000000000000D+00
            0.41666666666667D+00 -0.16666666666667D+00  0.00000000000000D+00
            0.50000000000000D+00 -0.16666666666667D+00  0.00000000000000D+00
           -0.41666666666667D+00 -0.16666666666667D+00  0.00000000000000D+00
           -0.33333333333333D+00 -0.16666666666667D+00  0.00000000000000D+00
           -0.25000000000000D+00 -0.16666666666667D+00  0.00000000000000D+00
           -0.16666666666667D+00 -0.16666666666667D+00  0.00000000000000D+00
           -0.83333333333333D-01 -0.16666666666667D+00  0.00000000000000D+00
            0.00000000000000D+00 -0.83333333333333D-01  0.00000000000000D+00
            0.83333333333333D-01 -0.83333333333333D-01  0.00000000000000D+00
            0.16666666666667D+00 -0.83333333333333D-01  0.00000000000000D+00
            0.25000000000000D+00 -0.83333333333333D-01  0.00000000000000D+00
            0.33333333333333D+00 -0.83333333333333D-01  0.00000000000000D+00
            0.41666666666667D+00 -0.83333333333333D-01  0.00000000000000D+00
            0.50000000000000D+00 -0.83333333333333D-01  0.00000000000000D+00
           -0.41666666666667D+00 -0.83333333333333D-01  0.00000000000000D+00
           -0.33333333333333D+00 -0.83333333333333D-01  0.00000000000000D+00
           -0.25000000000000D+00 -0.83333333333333D-01  0.00000000000000D+00
           -0.16666666666667D+00 -0.83333333333333D-01  0.00000000000000D+00
           -0.83333333333333D-01 -0.83333333333333D-01  0.00000000000000D+00
            0.00000000000000D+00  0.00000000000000D+00  0.16666666666667D+00
            0.83333333333333D-01  0.00000000000000D+00  0.16666666666667D+00
            0.16666666666667D+00  0.00000000000000D+00  0.16666666666667D+00
            0.25000000000000D+00  0.00000000000000D+00  0.16666666666667D+00
            0.33333333333333D+00  0.00000000000000D+00  0.16666666666667D+00
            0.41666666666667D+00  0.00000000000000D+00  0.16666666666667D+00
            0.50000000000000D+00  0.00000000000000D+00  0.16666666666667D+00
           -0.41666666666667D+00  0.00000000000000D+00  0.16666666666667D+00
           -0.33333333333333D+00  0.00000000000000D+00  0.16666666666667D+00
           -0.25000000000000D+00  0.00000000000000D+00  0.16666666666667D+00
           -0.16666666666667D+00  0.00000000000000D+00  0.16666666666667D+00
           -0.83333333333333D-01  0.00000000000000D+00  0.16666666666667D+00
            0.00000000000000D+00  0.83333333333333D-01  0.16666666666667D+00
            0.83333333333333D-01  0.83333333333333D-01  0.16666666666667D+00
            0.16666666666667D+00  0.83333333333333D-01  0.16666666666667D+00
            0.25000000000000D+00  0.83333333333333D-01  0.16666666666667D+00
            0.33333333333333D+00  0.83333333333333D-01  0.16666666666667D+00
            0.41666666666667D+00  0.83333333333333D-01  0.16666666666667D+00
            0.50000000000000D+00  0.83333333333333D-01  0.16666666666667D+00
           -0.41666666666667D+00  0.83333333333333D-01  0.16666666666667D+00
           -0.33333333333333D+00  0.83333333333333D-01  0.16666666666667D+00
           -0.25000000000000D+00  0.83333333333333D-01  0.16666666666667D+00
           -0.16666666666667D+00  0.83333333333333D-01  0.16666666666667D+00
           -0.83333333333333D-01  0.83333333333333D-01  0.16666666666667D+00
            0.00000000000000D+00  0.16666666666667D+00  0.16666666666667D+00
            0.83333333333333D-01  0.16666666666667D+00  0.16666666666667D+00
            0.16666666666667D+00  0.16666666666667D+00  0.16666666666667D+00
            0.25000000000000D+00  0.16666666666667D+00  0.16666666666667D+00
            0.33333333333333D+00  0.16666666666667D+00  0.16666666666667D+00
            0.41666666666667D+00  0.16666666666667D+00  0.16666666666667D+00
            0.50000000000000D+00  0.16666666666667D+00  0.16666666666667D+00
           -0.41666666666667D+00  0.16666666666667D+00  0.16666666666667D+00
           -0.33333333333333D+00  0.16666666666667D+00  0.16666666666667D+00
           -0.25000000000000D+00  0.16666666666667D+00  0.16666666666667D+00
           -0.16666666666667D+00  0.16666666666667D+00  0.16666666666667D+00
           -0.83333333333333D-01  0.16666666666667D+00  0.16666666666667D+00
            0.00000000000000D+00  0.25000000000000D+00  0.16666666666667D+00
            0.83333333333333D-01  0.25000000000000D+00  0.16666666666667D+00
            0.16666666666667D+00  0.25000000000000D+00  0.16666666666667D+00
            0.25000000000000D+00  0.25000000000000D+00  0.16666666666667D+00
            0.33333333333333D+00  0.25000000000000D+00  0.16666666666667D+00
            0.41666666666667D+00  0.25000000000000D+00  0.16666666666667D+00
            0.50000000000000D+00  0.25000000000000D+00  0.16666666666667D+00
           -0.41666666666667D+00  0.25000000000000D+00  0.16666666666667D+00
           -0.33333333333333D+00  0.25000000000000D+00  0.16666666666667D+00
           -0.25000000000000D+00  0.25000000000000D+00  0.16666666666667D+00
           -0.16666666666667D+00  0.25000000000000D+00  0.16666666666667D+00
           -0.83333333333333D-01  0.25000000000000D+00  0.16666666666667D+00
            0.00000000000000D+00  0.33333333333333D+00  0.16666666666667D+00
            0.83333333333333D-01  0.33333333333333D+00  0.16666666666667D+00
            0.16666666666667D+00  0.33333333333333D+00  0.16666666666667D+00
            0.25000000000000D+00  0.33333333333333D+00  0.16666666666667D+00
            0.33333333333333D+00  0.33333333333333D+00  0.16666666666667D+00
            0.41666666666667D+00  0.33333333333333D+00  0.16666666666667D+00
            0.50000000000000D+00  0.33333333333333D+00  0.16666666666667D+00
           -0.41666666666667D+00  0.33333333333333D+00  0.16666666666667D+00
           -0.33333333333333D+00  0.33333333333333D+00  0.16666666666667D+00
           -0.25000000000000D+00  0.33333333333333D+00  0.16666666666667D+00
           -0.16666666666667D+00  0.33333333333333D+00  0.16666666666667D+00
           -0.83333333333333D-01  0.33333333333333D+00  0.16666666666667D+00
            0.00000000000000D+00  0.41666666666667D+00  0.16666666666667D+00
            0.83333333333333D-01  0.41666666666667D+00  0.16666666666667D+00
            0.16666666666667D+00  0.41666666666667D+00  0.16666666666667D+00
            0.25000000000000D+00  0.41666666666667D+00  0.16666666666667D+00
            0.33333333333333D+00  0.41666666666667D+00  0.16666666666667D+00
            0.41666666666667D+00  0.41666666666667D+00  0.16666666666667D+00
            0.50000000000000D+00  0.41666666666667D+00  0.16666666666667D+00
           -0.41666666666667D+00  0.41666666666667D+00  0.16666666666667D+00
           -0.33333333333333D+00  0.41666666666667D+00  0.16666666666667D+00
           -0.25000000000000D+00  0.41666666666667D+00  0.16666666666667D+00
           -0.16666666666667D+00  0.41666666666667D+00  0.16666666666667D+00
           -0.83333333333333D-01  0.41666666666667D+00  0.16666666666667D+00
            0.00000000000000D+00  0.50000000000000D+00  0.16666666666667D+00
            0.83333333333333D-01  0.50000000000000D+00  0.16666666666667D+00
            0.16666666666667D+00  0.50000000000000D+00  0.16666666666667D+00
            0.25000000000000D+00  0.50000000000000D+00  0.16666666666667D+00
            0.33333333333333D+00  0.50000000000000D+00  0.16666666666667D+00
            0.41666666666667D+00  0.50000000000000D+00  0.16666666666667D+00
            0.50000000000000D+00  0.50000000000000D+00  0.16666666666667D+00
           -0.41666666666667D+00  0.50000000000000D+00  0.16666666666667D+00
           -0.33333333333333D+00  0.50000000000000D+00  0.16666666666667D+00
           -0.25000000000000D+00  0.50000000000000D+00  0.16666666666667D+00
           -0.16666666666667D+00  0.50000000000000D+00  0.16666666666667D+00
           -0.83333333333333D-01  0.50000000000000D+00  0.16666666666667D+00
            0.00000000000000D+00 -0.41666666666667D+00  0.16666666666667D+00
            0.83333333333333D-01 -0.41666666666667D+00  0.16666666666667D+00
            0.16666666666667D+00 -0.41666666666667D+00  0.16666666666667D+00
            0.25000000000000D+00 -0.41666666666667D+00  0.16666666666667D+00
            0.33333333333333D+00 -0.41666666666667D+00  0.16666666666667D+00
            0.41666666666667D+00 -0.41666666666667D+00  0.16666666666667D+00
            0.50000000000000D+00 -0.41666666666667D+00  0.16666666666667D+00
           -0.41666666666667D+00 -0.41666666666667D+00  0.16666666666667D+00
           -0.33333333333333D+00 -0.41666666666667D+00  0.16666666666667D+00
           -0.25000000000000D+00 -0.41666666666667D+00  0.16666666666667D+00
           -0.16666666666667D+00 -0.41666666666667D+00  0.16666666666667D+00
           -0.83333333333333D-01 -0.41666666666667D+00  0.16666666666667D+00
            0.00000000000000D+00 -0.33333333333333D+00  0.16666666666667D+00
            0.83333333333333D-01 -0.33333333333333D+00  0.16666666666667D+00
            0.16666666666667D+00 -0.33333333333333D+00  0.16666666666667D+00
            0.25000000000000D+00 -0.33333333333333D+00  0.16666666666667D+00
            0.33333333333333D+00 -0.33333333333333D+00  0.16666666666667D+00
            0.41666666666667D+00 -0.33333333333333D+00  0.16666666666667D+00
            0.50000000000000D+00 -0.33333333333333D+00  0.16666666666667D+00
           -0.41666666666667D+00 -0.33333333333333D+00  0.16666666666667D+00
           -0.33333333333333D+00 -0.33333333333333D+00  0.16666666666667D+00
           -0.25000000000000D+00 -0.33333333333333D+00  0.16666666666667D+00
           -0.16666666666667D+00 -0.33333333333333D+00  0.16666666666667D+00
           -0.83333333333333D-01 -0.33333333333333D+00  0.16666666666667D+00
            0.00000000000000D+00 -0.25000000000000D+00  0.16666666666667D+00
            0.83333333333333D-01 -0.25000000000000D+00  0.16666666666667D+00
            0.16666666666667D+00 -0.25000000000000D+00  0.16666666666667D+00
            0.25000000000000D+00 -0.25000000000000D+00  0.16666666666667D+00
            0.33333333333333D+00 -0.25000000000000D+00  0.16666666666667D+00
            0.41666666666667D+00 -0.25000000000000D+00  0.16666666666667D+00
            0.50000000000000D+00 -0.25000000000000D+00  0.16666666666667D+00
           -0.41666666666667D+00 -0.25000000000000D+00  0.16666666666667D+00
           -0.33333333333333D+00 -0.25000000000000D+00  0.16666666666667D+00
           -0.25000000000000D+00 -0.25000000000000D+00  0.16666666666667D+00
           -0.16666666666667D+00 -0.25000000000000D+00  0.16666666666667D+00
           -0.83333333333333D-01 -0.25000000000000D+00  0.16666666666667D+00
            0.00000000000000D+00 -0.16666666666667D+00  0.16666666666667D+00
            0.83333333333333D-01 -0.16666666666667D+00  0.16666666666667D+00
            0.16666666666667D+00 -0.16666666666667D+00  0.16666666666667D+00
            0.25000000000000D+00 -0.16666666666667D+00  0.16666666666667D+00
            0.33333333333333D+00 -0.16666666666667D+00  0.16666666666667D+00
            0.41666666666667D+00 -0.16666666666667D+00  0.16666666666667D+00
            0.50000000000000D+00 -0.16666666666667D+00  0.16666666666667D+00
           -0.41666666666667D+00 -0.16666666666667D+00  0.16666666666667D+00
           -0.33333333333333D+00 -0.16666666666667D+00  0.16666666666667D+00
           -0.25000000000000D+00 -0.16666666666667D+00  0.16666666666667D+00
           -0.16666666666667D+00 -0.16666666666667D+00  0.16666666666667D+00
           -0.83333333333333D-01 -0.16666666666667D+00  0.16666666666667D+00
            0.00000000000000D+00 -0.83333333333333D-01  0.16666666666667D+00
            0.83333333333333D-01 -0.83333333333333D-01  0.16666666666667D+00
            0.16666666666667D+00 -0.83333333333333D-01  0.16666666666667D+00
            0.25000000000000D+00 -0.83333333333333D-01  0.16666666666667D+00
            0.33333333333333D+00 -0.83333333333333D-01  0.16666666666667D+00
            0.41666666666667D+00 -0.83333333333333D-01  0.16666666666667D+00
            0.50000000000000D+00 -0.83333333333333D-01  0.16666666666667D+00
           -0.41666666666667D+00 -0.83333333333333D-01  0.16666666666667D+00
           -0.33333333333333D+00 -0.83333333333333D-01  0.16666666666667D+00
           -0.25000000000000D+00 -0.83333333333333D-01  0.16666666666667D+00
           -0.16666666666667D+00 -0.83333333333333D-01  0.16666666666667D+00
           -0.83333333333333D-01 -0.83333333333333D-01  0.16666666666667D+00
            0.00000000000000D+00  0.00000000000000D+00  0.33333333333333D+00
            0.83333333333333D-01  0.00000000000000D+00  0.33333333333333D+00
            0.16666666666667D+00  0.00000000000000D+00  0.33333333333333D+00
            0.25000000000000D+00  0.00000000000000D+00  0.33333333333333D+00
            0.33333333333333D+00  0.00000000000000D+00  0.33333333333333D+00
            0.41666666666667D+00  0.00000000000000D+00  0.33333333333333D+00
            0.50000000000000D+00  0.00000000000000D+00  0.33333333333333D+00
           -0.41666666666667D+00  0.00000000000000D+00  0.33333333333333D+00
           -0.33333333333333D+00  0.00000000000000D+00  0.33333333333333D+00
           -0.25000000000000D+00  0.00000000000000D+00  0.33333333333333D+00
           -0.16666666666667D+00  0.00000000000000D+00  0.33333333333333D+00
           -0.83333333333333D-01  0.00000000000000D+00  0.33333333333333D+00
            0.00000000000000D+00  0.83333333333333D-01  0.33333333333333D+00
            0.83333333333333D-01  0.83333333333333D-01  0.33333333333333D+00
            0.16666666666667D+00  0.83333333333333D-01  0.33333333333333D+00
            0.25000000000000D+00  0.83333333333333D-01  0.33333333333333D+00
            0.33333333333333D+00  0.83333333333333D-01  0.33333333333333D+00
            0.41666666666667D+00  0.83333333333333D-01  0.33333333333333D+00
            0.50000000000000D+00  0.83333333333333D-01  0.33333333333333D+00
           -0.41666666666667D+00  0.83333333333333D-01  0.33333333333333D+00
           -0.33333333333333D+00  0.83333333333333D-01  0.33333333333333D+00
           -0.25000000000000D+00  0.83333333333333D-01  0.33333333333333D+00
           -0.16666666666667D+00  0.83333333333333D-01  0.33333333333333D+00
           -0.83333333333333D-01  0.83333333333333D-01  0.33333333333333D+00
            0.00000000000000D+00  0.16666666666667D+00  0.33333333333333D+00
            0.83333333333333D-01  0.16666666666667D+00  0.33333333333333D+00
            0.16666666666667D+00  0.16666666666667D+00  0.33333333333333D+00
            0.25000000000000D+00  0.16666666666667D+00  0.33333333333333D+00
            0.33333333333333D+00  0.16666666666667D+00  0.33333333333333D+00
            0.41666666666667D+00  0.16666666666667D+00  0.33333333333333D+00
            0.50000000000000D+00  0.16666666666667D+00  0.33333333333333D+00
           -0.41666666666667D+00  0.16666666666667D+00  0.33333333333333D+00
           -0.33333333333333D+00  0.16666666666667D+00  0.33333333333333D+00
           -0.25000000000000D+00  0.16666666666667D+00  0.33333333333333D+00
           -0.16666666666667D+00  0.16666666666667D+00  0.33333333333333D+00
           -0.83333333333333D-01  0.16666666666667D+00  0.33333333333333D+00
            0.00000000000000D+00  0.25000000000000D+00  0.33333333333333D+00
            0.83333333333333D-01  0.25000000000000D+00  0.33333333333333D+00
            0.16666666666667D+00  0.25000000000000D+00  0.33333333333333D+00
            0.25000000000000D+00  0.25000000000000D+00  0.33333333333333D+00
            0.33333333333333D+00  0.25000000000000D+00  0.33333333333333D+00
            0.41666666666667D+00  0.25000000000000D+00  0.33333333333333D+00
            0.50000000000000D+00  0.25000000000000D+00  0.33333333333333D+00
           -0.41666666666667D+00  0.25000000000000D+00  0.33333333333333D+00
           -0.33333333333333D+00  0.25000000000000D+00  0.33333333333333D+00
           -0.25000000000000D+00  0.25000000000000D+00  0.33333333333333D+00
           -0.16666666666667D+00  0.25000000000000D+00  0.33333333333333D+00
           -0.83333333333333D-01  0.25000000000000D+00  0.33333333333333D+00
            0.00000000000000D+00  0.33333333333333D+00  0.33333333333333D+00
            0.83333333333333D-01  0.33333333333333D+00  0.33333333333333D+00
            0.16666666666667D+00  0.33333333333333D+00  0.33333333333333D+00
            0.25000000000000D+00  0.33333333333333D+00  0.33333333333333D+00
            0.33333333333333D+00  0.33333333333333D+00  0.33333333333333D+00
            0.41666666666667D+00  0.33333333333333D+00  0.33333333333333D+00
            0.50000000000000D+00  0.33333333333333D+00  0.33333333333333D+00
           -0.41666666666667D+00  0.33333333333333D+00  0.33333333333333D+00
           -0.33333333333333D+00  0.33333333333333D+00  0.33333333333333D+00
           -0.25000000000000D+00  0.33333333333333D+00  0.33333333333333D+00
           -0.16666666666667D+00  0.33333333333333D+00  0.33333333333333D+00
           -0.83333333333333D-01  0.33333333333333D+00  0.33333333333333D+00
            0.00000000000000D+00  0.41666666666667D+00  0.33333333333333D+00
            0.83333333333333D-01  0.41666666666667D+00  0.33333333333333D+00
            0.16666666666667D+00  0.41666666666667D+00  0.33333333333333D+00
            0.25000000000000D+00  0.41666666666667D+00  0.33333333333333D+00
            0.33333333333333D+00  0.41666666666667D+00  0.33333333333333D+00
            0.41666666666667D+00  0.41666666666667D+00  0.33333333333333D+00
            0.50000000000000D+00  0.41666666666667D+00  0.33333333333333D+00
           -0.41666666666667D+00  0.41666666666667D+00  0.33333333333333D+00
           -0.33333333333333D+00  0.41666666666667D+00  0.33333333333333D+00
           -0.25000000000000D+00  0.41666666666667D+00  0.33333333333333D+00
           -0.16666666666667D+00  0.41666666666667D+00  0.33333333333333D+00
           -0.83333333333333D-01  0.41666666666667D+00  0.33333333333333D+00
            0.00000000000000D+00  0.50000000000000D+00  0.33333333333333D+00
            0.83333333333333D-01  0.50000000000000D+00  0.33333333333333D+00
            0.16666666666667D+00  0.50000000000000D+00  0.33333333333333D+00
            0.25000000000000D+00  0.50000000000000D+00  0.33333333333333D+00
            0.33333333333333D+00  0.50000000000000D+00  0.33333333333333D+00
            0.41666666666667D+00  0.50000000000000D+00  0.33333333333333D+00
            0.50000000000000D+00  0.50000000000000D+00  0.33333333333333D+00
           -0.41666666666667D+00  0.50000000000000D+00  0.33333333333333D+00
           -0.33333333333333D+00  0.50000000000000D+00  0.33333333333333D+00
           -0.25000000000000D+00  0.50000000000000D+00  0.33333333333333D+00
           -0.16666666666667D+00  0.50000000000000D+00  0.33333333333333D+00
           -0.83333333333333D-01  0.50000000000000D+00  0.33333333333333D+00
            0.00000000000000D+00 -0.41666666666667D+00  0.33333333333333D+00
            0.83333333333333D-01 -0.41666666666667D+00  0.33333333333333D+00
            0.16666666666667D+00 -0.41666666666667D+00  0.33333333333333D+00
            0.25000000000000D+00 -0.41666666666667D+00  0.33333333333333D+00
            0.33333333333333D+00 -0.41666666666667D+00  0.33333333333333D+00
            0.41666666666667D+00 -0.41666666666667D+00  0.33333333333333D+00
            0.50000000000000D+00 -0.41666666666667D+00  0.33333333333333D+00
           -0.41666666666667D+00 -0.41666666666667D+00  0.33333333333333D+00
           -0.33333333333333D+00 -0.41666666666667D+00  0.33333333333333D+00
           -0.25000000000000D+00 -0.41666666666667D+00  0.33333333333333D+00
           -0.16666666666667D+00 -0.41666666666667D+00  0.33333333333333D+00
           -0.83333333333333D-01 -0.41666666666667D+00  0.33333333333333D+00
            0.00000000000000D+00 -0.33333333333333D+00  0.33333333333333D+00
            0.83333333333333D-01 -0.33333333333333D+00  0.33333333333333D+00
            0.16666666666667D+00 -0.33333333333333D+00  0.33333333333333D+00
            0.25000000000000D+00 -0.33333333333333D+00  0.33333333333333D+00
            0.33333333333333D+00 -0.33333333333333D+00  0.33333333333333D+00
            0.41666666666667D+00 -0.33333333333333D+00  0.33333333333333D+00
            0.50000000000000D+00 -0.33333333333333D+00  0.33333333333333D+00
           -0.41666666666667D+00 -0.33333333333333D+00  0.33333333333333D+00
           -0.33333333333333D+00 -0.33333333333333D+00  0.33333333333333D+00
           -0.25000000000000D+00 -0.33333333333333D+00  0.33333333333333D+00
           -0.16666666666667D+00 -0.33333333333333D+00  0.33333333333333D+00
           -0.83333333333333D-01 -0.33333333333333D+00  0.33333333333333D+00
            0.00000000000000D+00 -0.25000000000000D+00  0.33333333333333D+00
            0.83333333333333D-01 -0.25000000000000D+00  0.33333333333333D+00
            0.16666666666667D+00 -0.25000000000000D+00  0.33333333333333D+00
            0.25000000000000D+00 -0.25000000000000D+00  0.33333333333333D+00
            0.33333333333333D+00 -0.25000000000000D+00  0.33333333333333D+00
            0.41666666666667D+00 -0.25000000000000D+00  0.33333333333333D+00
            0.50000000000000D+00 -0.25000000000000D+00  0.33333333333333D+00
           -0.41666666666667D+00 -0.25000000000000D+00  0.33333333333333D+00
           -0.33333333333333D+00 -0.25000000000000D+00  0.33333333333333D+00
           -0.25000000000000D+00 -0.25000000000000D+00  0.33333333333333D+00
           -0.16666666666667D+00 -0.25000000000000D+00  0.33333333333333D+00
           -0.83333333333333D-01 -0.25000000000000D+00  0.33333333333333D+00
            0.00000000000000D+00 -0.16666666666667D+00  0.33333333333333D+00
            0.83333333333333D-01 -0.16666666666667D+00  0.33333333333333D+00
            0.16666666666667D+00 -0.16666666666667D+00  0.33333333333333D+00
            0.25000000000000D+00 -0.16666666666667D+00  0.33333333333333D+00
            0.33333333333333D+00 -0.16666666666667D+00  0.33333333333333D+00
            0.41666666666667D+00 -0.16666666666667D+00  0.33333333333333D+00
            0.50000000000000D+00 -0.16666666666667D+00  0.33333333333333D+00
           -0.41666666666667D+00 -0.16666666666667D+00  0.33333333333333D+00
           -0.33333333333333D+00 -0.16666666666667D+00  0.33333333333333D+00
           -0.25000000000000D+00 -0.16666666666667D+00  0.33333333333333D+00
           -0.16666666666667D+00 -0.16666666666667D+00  0.33333333333333D+00
           -0.83333333333333D-01 -0.16666666666667D+00  0.33333333333333D+00
            0.00000000000000D+00 -0.83333333333333D-01  0.33333333333333D+00
            0.83333333333333D-01 -0.83333333333333D-01  0.33333333333333D+00
            0.16666666666667D+00 -0.83333333333333D-01  0.33333333333333D+00
            0.25000000000000D+00 -0.83333333333333D-01  0.33333333333333D+00
            0.33333333333333D+00 -0.83333333333333D-01  0.33333333333333D+00
            0.41666666666667D+00 -0.83333333333333D-01  0.33333333333333D+00
            0.50000000000000D+00 -0.83333333333333D-01  0.33333333333333D+00
           -0.41666666666667D+00 -0.83333333333333D-01  0.33333333333333D+00
           -0.33333333333333D+00 -0.83333333333333D-01  0.33333333333333D+00
           -0.25000000000000D+00 -0.83333333333333D-01  0.33333333333333D+00
           -0.16666666666667D+00 -0.83333333333333D-01  0.33333333333333D+00
           -0.83333333333333D-01 -0.83333333333333D-01  0.33333333333333D+00
            0.00000000000000D+00  0.00000000000000D+00  0.50000000000000D+00
            0.83333333333333D-01  0.00000000000000D+00  0.50000000000000D+00
            0.16666666666667D+00  0.00000000000000D+00  0.50000000000000D+00
            0.25000000000000D+00  0.00000000000000D+00  0.50000000000000D+00
            0.33333333333333D+00  0.00000000000000D+00  0.50000000000000D+00
            0.41666666666667D+00  0.00000000000000D+00  0.50000000000000D+00
            0.50000000000000D+00  0.00000000000000D+00  0.50000000000000D+00
           -0.41666666666667D+00  0.00000000000000D+00  0.50000000000000D+00
           -0.33333333333333D+00  0.00000000000000D+00  0.50000000000000D+00
           -0.25000000000000D+00  0.00000000000000D+00  0.50000000000000D+00
           -0.16666666666667D+00  0.00000000000000D+00  0.50000000000000D+00
           -0.83333333333333D-01  0.00000000000000D+00  0.50000000000000D+00
            0.00000000000000D+00  0.83333333333333D-01  0.50000000000000D+00
            0.83333333333333D-01  0.83333333333333D-01  0.50000000000000D+00
            0.16666666666667D+00  0.83333333333333D-01  0.50000000000000D+00
            0.25000000000000D+00  0.83333333333333D-01  0.50000000000000D+00
            0.33333333333333D+00  0.83333333333333D-01  0.50000000000000D+00
            0.41666666666667D+00  0.83333333333333D-01  0.50000000000000D+00
            0.50000000000000D+00  0.83333333333333D-01  0.50000000000000D+00
           -0.41666666666667D+00  0.83333333333333D-01  0.50000000000000D+00
           -0.33333333333333D+00  0.83333333333333D-01  0.50000000000000D+00
           -0.25000000000000D+00  0.83333333333333D-01  0.50000000000000D+00
           -0.16666666666667D+00  0.83333333333333D-01  0.50000000000000D+00
           -0.83333333333333D-01  0.83333333333333D-01  0.50000000000000D+00
            0.00000000000000D+00  0.16666666666667D+00  0.50000000000000D+00
            0.83333333333333D-01  0.16666666666667D+00  0.50000000000000D+00
            0.16666666666667D+00  0.16666666666667D+00  0.50000000000000D+00
            0.25000000000000D+00  0.16666666666667D+00  0.50000000000000D+00
            0.33333333333333D+00  0.16666666666667D+00  0.50000000000000D+00
            0.41666666666667D+00  0.16666666666667D+00  0.50000000000000D+00
            0.50000000000000D+00  0.16666666666667D+00  0.50000000000000D+00
           -0.41666666666667D+00  0.16666666666667D+00  0.50000000000000D+00
           -0.33333333333333D+00  0.16666666666667D+00  0.50000000000000D+00
           -0.25000000000000D+00  0.16666666666667D+00  0.50000000000000D+00
           -0.16666666666667D+00  0.16666666666667D+00  0.50000000000000D+00
           -0.83333333333333D-01  0.16666666666667D+00  0.50000000000000D+00
            0.00000000000000D+00  0.25000000000000D+00  0.50000000000000D+00
            0.83333333333333D-01  0.25000000000000D+00  0.50000000000000D+00
            0.16666666666667D+00  0.25000000000000D+00  0.50000000000000D+00
            0.25000000000000D+00  0.25000000000000D+00  0.50000000000000D+00
            0.33333333333333D+00  0.25000000000000D+00  0.50000000000000D+00
            0.41666666666667D+00  0.25000000000000D+00  0.50000000000000D+00
            0.50000000000000D+00  0.25000000000000D+00  0.50000000000000D+00
           -0.41666666666667D+00  0.25000000000000D+00  0.50000000000000D+00
           -0.33333333333333D+00  0.25000000000000D+00  0.50000000000000D+00
           -0.25000000000000D+00  0.25000000000000D+00  0.50000000000000D+00
           -0.16666666666667D+00  0.25000000000000D+00  0.50000000000000D+00
           -0.83333333333333D-01  0.25000000000000D+00  0.50000000000000D+00
            0.00000000000000D+00  0.33333333333333D+00  0.50000000000000D+00
            0.83333333333333D-01  0.33333333333333D+00  0.50000000000000D+00
            0.16666666666667D+00  0.33333333333333D+00  0.50000000000000D+00
            0.25000000000000D+00  0.33333333333333D+00  0.50000000000000D+00
            0.33333333333333D+00  0.33333333333333D+00  0.50000000000000D+00
            0.41666666666667D+00  0.33333333333333D+00  0.50000000000000D+00
            0.50000000000000D+00  0.33333333333333D+00  0.50000000000000D+00
           -0.41666666666667D+00  0.33333333333333D+00  0.50000000000000D+00
           -0.33333333333333D+00  0.33333333333333D+00  0.50000000000000D+00
           -0.25000000000000D+00  0.33333333333333D+00  0.50000000000000D+00
           -0.16666666666667D+00  0.33333333333333D+00  0.50000000000000D+00
           -0.83333333333333D-01  0.33333333333333D+00  0.50000000000000D+00
            0.00000000000000D+00  0.41666666666667D+00  0.50000000000000D+00
            0.83333333333333D-01  0.41666666666667D+00  0.50000000000000D+00
            0.16666666666667D+00  0.41666666666667D+00  0.50000000000000D+00
            0.25000000000000D+00  0.41666666666667D+00  0.50000000000000D+00
            0.33333333333333D+00  0.41666666666667D+00  0.50000000000000D+00
            0.41666666666667D+00  0.41666666666667D+00  0.50000000000000D+00
            0.50000000000000D+00  0.41666666666667D+00  0.50000000000000D+00
           -0.41666666666667D+00  0.41666666666667D+00  0.50000000000000D+00
           -0.33333333333333D+00  0.41666666666667D+00  0.50000000000000D+00
           -0.25000000000000D+00  0.41666666666667D+00  0.50000000000000D+00
           -0.16666666666667D+00  0.41666666666667D+00  0.50000000000000D+00
           -0.83333333333333D-01  0.41666666666667D+00  0.50000000000000D+00
            0.00000000000000D+00  0.50000000000000D+00  0.50000000000000D+00
            0.83333333333333D-01  0.50000000000000D+00  0.50000000000000D+00
            0.16666666666667D+00  0.50000000000000D+00  0.50000000000000D+00
            0.25000000000000D+00  0.50000000000000D+00  0.50000000000000D+00
            0.33333333333333D+00  0.50000000000000D+00  0.50000000000000D+00
            0.41666666666667D+00  0.50000000000000D+00  0.50000000000000D+00
            0.50000000000000D+00  0.50000000000000D+00  0.50000000000000D+00
           -0.41666666666667D+00  0.50000000000000D+00  0.50000000000000D+00
           -0.33333333333333D+00  0.50000000000000D+00  0.50000000000000D+00
           -0.25000000000000D+00  0.50000000000000D+00  0.50000000000000D+00
           -0.16666666666667D+00  0.50000000000000D+00  0.50000000000000D+00
           -0.83333333333333D-01  0.50000000000000D+00  0.50000000000000D+00
            0.00000000000000D+00 -0.41666666666667D+00  0.50000000000000D+00
            0.83333333333333D-01 -0.41666666666667D+00  0.50000000000000D+00
            0.16666666666667D+00 -0.41666666666667D+00  0.50000000000000D+00
            0.25000000000000D+00 -0.41666666666667D+00  0.50000000000000D+00
            0.33333333333333D+00 -0.41666666666667D+00  0.50000000000000D+00
            0.41666666666667D+00 -0.41666666666667D+00  0.50000000000000D+00
            0.50000000000000D+00 -0.41666666666667D+00  0.50000000000000D+00
           -0.41666666666667D+00 -0.41666666666667D+00  0.50000000000000D+00
           -0.33333333333333D+00 -0.41666666666667D+00  0.50000000000000D+00
           -0.25000000000000D+00 -0.41666666666667D+00  0.50000000000000D+00
           -0.16666666666667D+00 -0.41666666666667D+00  0.50000000000000D+00
           -0.83333333333333D-01 -0.41666666666667D+00  0.50000000000000D+00
            0.00000000000000D+00 -0.33333333333333D+00  0.50000000000000D+00
            0.83333333333333D-01 -0.33333333333333D+00  0.50000000000000D+00
            0.16666666666667D+00 -0.33333333333333D+00  0.50000000000000D+00
            0.25000000000000D+00 -0.33333333333333D+00  0.50000000000000D+00
            0.33333333333333D+00 -0.33333333333333D+00  0.50000000000000D+00
            0.41666666666667D+00 -0.33333333333333D+00  0.50000000000000D+00
            0.50000000000000D+00 -0.33333333333333D+00  0.50000000000000D+00
           -0.41666666666667D+00 -0.33333333333333D+00  0.50000000000000D+00
           -0.33333333333333D+00 -0.33333333333333D+00  0.50000000000000D+00
           -0.25000000000000D+00 -0.33333333333333D+00  0.50000000000000D+00
           -0.16666666666667D+00 -0.33333333333333D+00  0.50000000000000D+00
           -0.83333333333333D-01 -0.33333333333333D+00  0.50000000000000D+00
            0.00000000000000D+00 -0.25000000000000D+00  0.50000000000000D+00
            0.83333333333333D-01 -0.25000000000000D+00  0.50000000000000D+00
            0.16666666666667D+00 -0.25000000000000D+00  0.50000000000000D+00
            0.25000000000000D+00 -0.25000000000000D+00  0.50000000000000D+00
            0.33333333333333D+00 -0.25000000000000D+00  0.50000000000000D+00
            0.41666666666667D+00 -0.25000000000000D+00  0.50000000000000D+00
            0.50000000000000D+00 -0.25000000000000D+00  0.50000000000000D+00
           -0.41666666666667D+00 -0.25000000000000D+00  0.50000000000000D+00
           -0.33333333333333D+00 -0.25000000000000D+00  0.50000000000000D+00
           -0.25000000000000D+00 -0.25000000000000D+00  0.50000000000000D+00
           -0.16666666666667D+00 -0.25000000000000D+00  0.50000000000000D+00
           -0.83333333333333D-01 -0.25000000000000D+00  0.50000000000000D+00
            0.00000000000000D+00 -0.16666666666667D+00  0.50000000000000D+00
            0.83333333333333D-01 -0.16666666666667D+00  0.50000000000000D+00
            0.16666666666667D+00 -0.16666666666667D+00  0.50000000000000D+00
            0.25000000000000D+00 -0.16666666666667D+00  0.50000000000000D+00
            0.33333333333333D+00 -0.16666666666667D+00  0.50000000000000D+00
            0.41666666666667D+00 -0.16666666666667D+00  0.50000000000000D+00
            0.50000000000000D+00 -0.16666666666667D+00  0.50000000000000D+00
           -0.41666666666667D+00 -0.16666666666667D+00  0.50000000000000D+00
           -0.33333333333333D+00 -0.16666666666667D+00  0.50000000000000D+00
           -0.25000000000000D+00 -0.16666666666667D+00  0.50000000000000D+00
           -0.16666666666667D+00 -0.16666666666667D+00  0.50000000000000D+00
           -0.83333333333333D-01 -0.16666666666667D+00  0.50000000000000D+00
            0.00000000000000D+00 -0.83333333333333D-01  0.50000000000000D+00
            0.83333333333333D-01 -0.83333333333333D-01  0.50000000000000D+00
            0.16666666666667D+00 -0.83333333333333D-01  0.50000000000000D+00
            0.25000000000000D+00 -0.83333333333333D-01  0.50000000000000D+00
            0.33333333333333D+00 -0.83333333333333D-01  0.50000000000000D+00
            0.41666666666667D+00 -0.83333333333333D-01  0.50000000000000D+00
            0.50000000000000D+00 -0.83333333333333D-01  0.50000000000000D+00
           -0.41666666666667D+00 -0.83333333333333D-01  0.50000000000000D+00
           -0.33333333333333D+00 -0.83333333333333D-01  0.50000000000000D+00
           -0.25000000000000D+00 -0.83333333333333D-01  0.50000000000000D+00
           -0.16666666666667D+00 -0.83333333333333D-01  0.50000000000000D+00
           -0.83333333333333D-01 -0.83333333333333D-01  0.50000000000000D+00
            0.00000000000000D+00  0.00000000000000D+00 -0.33333333333333D+00
            0.83333333333333D-01  0.00000000000000D+00 -0.33333333333333D+00
            0.16666666666667D+00  0.00000000000000D+00 -0.33333333333333D+00
            0.25000000000000D+00  0.00000000000000D+00 -0.33333333333333D+00
            0.33333333333333D+00  0.00000000000000D+00 -0.33333333333333D+00
            0.41666666666667D+00  0.00000000000000D+00 -0.33333333333333D+00
            0.50000000000000D+00  0.00000000000000D+00 -0.33333333333333D+00
           -0.41666666666667D+00  0.00000000000000D+00 -0.33333333333333D+00
           -0.33333333333333D+00  0.00000000000000D+00 -0.33333333333333D+00
           -0.25000000000000D+00  0.00000000000000D+00 -0.33333333333333D+00
           -0.16666666666667D+00  0.00000000000000D+00 -0.33333333333333D+00
           -0.83333333333333D-01  0.00000000000000D+00 -0.33333333333333D+00
            0.00000000000000D+00  0.83333333333333D-01 -0.33333333333333D+00
            0.83333333333333D-01  0.83333333333333D-01 -0.33333333333333D+00
            0.16666666666667D+00  0.83333333333333D-01 -0.33333333333333D+00
            0.25000000000000D+00  0.83333333333333D-01 -0.33333333333333D+00
            0.33333333333333D+00  0.83333333333333D-01 -0.33333333333333D+00
            0.41666666666667D+00  0.83333333333333D-01 -0.33333333333333D+00
            0.50000000000000D+00  0.83333333333333D-01 -0.33333333333333D+00
           -0.41666666666667D+00  0.83333333333333D-01 -0.33333333333333D+00
           -0.33333333333333D+00  0.83333333333333D-01 -0.33333333333333D+00
           -0.25000000000000D+00  0.83333333333333D-01 -0.33333333333333D+00
           -0.16666666666667D+00  0.83333333333333D-01 -0.33333333333333D+00
           -0.83333333333333D-01  0.83333333333333D-01 -0.33333333333333D+00
            0.00000000000000D+00  0.16666666666667D+00 -0.33333333333333D+00
            0.83333333333333D-01  0.16666666666667D+00 -0.33333333333333D+00
            0.16666666666667D+00  0.16666666666667D+00 -0.33333333333333D+00
            0.25000000000000D+00  0.16666666666667D+00 -0.33333333333333D+00
            0.33333333333333D+00  0.16666666666667D+00 -0.33333333333333D+00
            0.41666666666667D+00  0.16666666666667D+00 -0.33333333333333D+00
            0.50000000000000D+00  0.16666666666667D+00 -0.33333333333333D+00
           -0.41666666666667D+00  0.16666666666667D+00 -0.33333333333333D+00
           -0.33333333333333D+00  0.16666666666667D+00 -0.33333333333333D+00
           -0.25000000000000D+00  0.16666666666667D+00 -0.33333333333333D+00
           -0.16666666666667D+00  0.16666666666667D+00 -0.33333333333333D+00
           -0.83333333333333D-01  0.16666666666667D+00 -0.33333333333333D+00
            0.00000000000000D+00  0.25000000000000D+00 -0.33333333333333D+00
            0.83333333333333D-01  0.25000000000000D+00 -0.33333333333333D+00
            0.16666666666667D+00  0.25000000000000D+00 -0.33333333333333D+00
            0.25000000000000D+00  0.25000000000000D+00 -0.33333333333333D+00
            0.33333333333333D+00  0.25000000000000D+00 -0.33333333333333D+00
            0.41666666666667D+00  0.25000000000000D+00 -0.33333333333333D+00
            0.50000000000000D+00  0.25000000000000D+00 -0.33333333333333D+00
           -0.41666666666667D+00  0.25000000000000D+00 -0.33333333333333D+00
           -0.33333333333333D+00  0.25000000000000D+00 -0.33333333333333D+00
           -0.25000000000000D+00  0.25000000000000D+00 -0.33333333333333D+00
           -0.16666666666667D+00  0.25000000000000D+00 -0.33333333333333D+00
           -0.83333333333333D-01  0.25000000000000D+00 -0.33333333333333D+00
            0.00000000000000D+00  0.33333333333333D+00 -0.33333333333333D+00
            0.83333333333333D-01  0.33333333333333D+00 -0.33333333333333D+00
            0.16666666666667D+00  0.33333333333333D+00 -0.33333333333333D+00
            0.25000000000000D+00  0.33333333333333D+00 -0.33333333333333D+00
            0.33333333333333D+00  0.33333333333333D+00 -0.33333333333333D+00
            0.41666666666667D+00  0.33333333333333D+00 -0.33333333333333D+00
            0.50000000000000D+00  0.33333333333333D+00 -0.33333333333333D+00
           -0.41666666666667D+00  0.33333333333333D+00 -0.33333333333333D+00
           -0.33333333333333D+00  0.33333333333333D+00 -0.33333333333333D+00
           -0.25000000000000D+00  0.33333333333333D+00 -0.33333333333333D+00
           -0.16666666666667D+00  0.33333333333333D+00 -0.33333333333333D+00
           -0.83333333333333D-01  0.33333333333333D+00 -0.33333333333333D+00
            0.00000000000000D+00  0.41666666666667D+00 -0.33333333333333D+00
            0.83333333333333D-01  0.41666666666667D+00 -0.33333333333333D+00
            0.16666666666667D+00  0.41666666666667D+00 -0.33333333333333D+00
            0.25000000000000D+00  0.41666666666667D+00 -0.33333333333333D+00
            0.33333333333333D+00  0.41666666666667D+00 -0.33333333333333D+00
            0.41666666666667D+00  0.41666666666667D+00 -0.33333333333333D+00
            0.50000000000000D+00  0.41666666666667D+00 -0.33333333333333D+00
           -0.41666666666667D+00  0.41666666666667D+00 -0.33333333333333D+00
           -0.33333333333333D+00  0.41666666666667D+00 -0.33333333333333D+00
           -0.25000000000000D+00  0.41666666666667D+00 -0.33333333333333D+00
           -0.16666666666667D+00  0.41666666666667D+00 -0.33333333333333D+00
           -0.83333333333333D-01  0.41666666666667D+00 -0.33333333333333D+00
            0.00000000000000D+00  0.50000000000000D+00 -0.33333333333333D+00
            0.83333333333333D-01  0.50000000000000D+00 -0.33333333333333D+00
            0.16666666666667D+00  0.50000000000000D+00 -0.33333333333333D+00
            0.25000000000000D+00  0.50000000000000D+00 -0.33333333333333D+00
            0.33333333333333D+00  0.50000000000000D+00 -0.33333333333333D+00
            0.41666666666667D+00  0.50000000000000D+00 -0.33333333333333D+00
            0.50000000000000D+00  0.50000000000000D+00 -0.33333333333333D+00
           -0.41666666666667D+00  0.50000000000000D+00 -0.33333333333333D+00
           -0.33333333333333D+00  0.50000000000000D+00 -0.33333333333333D+00
           -0.25000000000000D+00  0.50000000000000D+00 -0.33333333333333D+00
           -0.16666666666667D+00  0.50000000000000D+00 -0.33333333333333D+00
           -0.83333333333333D-01  0.50000000000000D+00 -0.33333333333333D+00
            0.00000000000000D+00 -0.41666666666667D+00 -0.33333333333333D+00
            0.83333333333333D-01 -0.41666666666667D+00 -0.33333333333333D+00
            0.16666666666667D+00 -0.41666666666667D+00 -0.33333333333333D+00
            0.25000000000000D+00 -0.41666666666667D+00 -0.33333333333333D+00
            0.33333333333333D+00 -0.41666666666667D+00 -0.33333333333333D+00
            0.41666666666667D+00 -0.41666666666667D+00 -0.33333333333333D+00
            0.50000000000000D+00 -0.41666666666667D+00 -0.33333333333333D+00
           -0.41666666666667D+00 -0.41666666666667D+00 -0.33333333333333D+00
           -0.33333333333333D+00 -0.41666666666667D+00 -0.33333333333333D+00
           -0.25000000000000D+00 -0.41666666666667D+00 -0.33333333333333D+00
           -0.16666666666667D+00 -0.41666666666667D+00 -0.33333333333333D+00
           -0.83333333333333D-01 -0.41666666666667D+00 -0.33333333333333D+00
            0.00000000000000D+00 -0.33333333333333D+00 -0.33333333333333D+00
            0.83333333333333D-01 -0.33333333333333D+00 -0.33333333333333D+00
            0.16666666666667D+00 -0.33333333333333D+00 -0.33333333333333D+00
            0.25000000000000D+00 -0.33333333333333D+00 -0.33333333333333D+00
            0.33333333333333D+00 -0.33333333333333D+00 -0.33333333333333D+00
            0.41666666666667D+00 -0.33333333333333D+00 -0.33333333333333D+00
            0.50000000000000D+00 -0.33333333333333D+00 -0.33333333333333D+00
           -0.41666666666667D+00 -0.33333333333333D+00 -0.33333333333333D+00
           -0.33333333333333D+00 -0.33333333333333D+00 -0.33333333333333D+00
           -0.25000000000000D+00 -0.33333333333333D+00 -0.33333333333333D+00
           -0.16666666666667D+00 -0.33333333333333D+00 -0.33333333333333D+00
           -0.83333333333333D-01 -0.33333333333333D+00 -0.33333333333333D+00
            0.00000000000000D+00 -0.25000000000000D+00 -0.33333333333333D+00
            0.83333333333333D-01 -0.25000000000000D+00 -0.33333333333333D+00
            0.16666666666667D+00 -0.25000000000000D+00 -0.33333333333333D+00
            0.25000000000000D+00 -0.25000000000000D+00 -0.33333333333333D+00
            0.33333333333333D+00 -0.25000000000000D+00 -0.33333333333333D+00
            0.41666666666667D+00 -0.25000000000000D+00 -0.33333333333333D+00
            0.50000000000000D+00 -0.25000000000000D+00 -0.33333333333333D+00
           -0.41666666666667D+00 -0.25000000000000D+00 -0.33333333333333D+00
           -0.33333333333333D+00 -0.25000000000000D+00 -0.33333333333333D+00
           -0.25000000000000D+00 -0.25000000000000D+00 -0.33333333333333D+00
           -0.16666666666667D+00 -0.25000000000000D+00 -0.33333333333333D+00
           -0.83333333333333D-01 -0.25000000000000D+00 -0.33333333333333D+00
            0.00000000000000D+00 -0.16666666666667D+00 -0.33333333333333D+00
            0.83333333333333D-01 -0.16666666666667D+00 -0.33333333333333D+00
            0.16666666666667D+00 -0.16666666666667D+00 -0.33333333333333D+00
            0.25000000000000D+00 -0.16666666666667D+00 -0.33333333333333D+00
            0.33333333333333D+00 -0.16666666666667D+00 -0.33333333333333D+00
            0.41666666666667D+00 -0.16666666666667D+00 -0.33333333333333D+00
            0.50000000000000D+00 -0.16666666666667D+00 -0.33333333333333D+00
           -0.41666666666667D+00 -0.16666666666667D+00 -0.33333333333333D+00
           -0.33333333333333D+00 -0.16666666666667D+00 -0.33333333333333D+00
           -0.25000000000000D+00 -0.16666666666667D+00 -0.33333333333333D+00
           -0.16666666666667D+00 -0.16666666666667D+00 -0.33333333333333D+00
           -0.83333333333333D-01 -0.16666666666667D+00 -0.33333333333333D+00
            0.00000000000000D+00 -0.83333333333333D-01 -0.33333333333333D+00
            0.83333333333333D-01 -0.83333333333333D-01 -0.33333333333333D+00
            0.16666666666667D+00 -0.83333333333333D-01 -0.33333333333333D+00
            0.25000000000000D+00 -0.83333333333333D-01 -0.33333333333333D+00
            0.33333333333333D+00 -0.83333333333333D-01 -0.33333333333333D+00
            0.41666666666667D+00 -0.83333333333333D-01 -0.33333333333333D+00
            0.50000000000000D+00 -0.83333333333333D-01 -0.33333333333333D+00
           -0.41666666666667D+00 -0.83333333333333D-01 -0.33333333333333D+00
           -0.33333333333333D+00 -0.83333333333333D-01 -0.33333333333333D+00
           -0.25000000000000D+00 -0.83333333333333D-01 -0.33333333333333D+00
           -0.16666666666667D+00 -0.83333333333333D-01 -0.33333333333333D+00
           -0.83333333333333D-01 -0.83333333333333D-01 -0.33333333333333D+00
            0.00000000000000D+00  0.00000000000000D+00 -0.16666666666667D+00
            0.83333333333333D-01  0.00000000000000D+00 -0.16666666666667D+00
            0.16666666666667D+00  0.00000000000000D+00 -0.16666666666667D+00
            0.25000000000000D+00  0.00000000000000D+00 -0.16666666666667D+00
            0.33333333333333D+00  0.00000000000000D+00 -0.16666666666667D+00
            0.41666666666667D+00  0.00000000000000D+00 -0.16666666666667D+00
            0.50000000000000D+00  0.00000000000000D+00 -0.16666666666667D+00
           -0.41666666666667D+00  0.00000000000000D+00 -0.16666666666667D+00
           -0.33333333333333D+00  0.00000000000000D+00 -0.16666666666667D+00
           -0.25000000000000D+00  0.00000000000000D+00 -0.16666666666667D+00
           -0.16666666666667D+00  0.00000000000000D+00 -0.16666666666667D+00
           -0.83333333333333D-01  0.00000000000000D+00 -0.16666666666667D+00
            0.00000000000000D+00  0.83333333333333D-01 -0.16666666666667D+00
            0.83333333333333D-01  0.83333333333333D-01 -0.16666666666667D+00
            0.16666666666667D+00  0.83333333333333D-01 -0.16666666666667D+00
            0.25000000000000D+00  0.83333333333333D-01 -0.16666666666667D+00
            0.33333333333333D+00  0.83333333333333D-01 -0.16666666666667D+00
            0.41666666666667D+00  0.83333333333333D-01 -0.16666666666667D+00
            0.50000000000000D+00  0.83333333333333D-01 -0.16666666666667D+00
           -0.41666666666667D+00  0.83333333333333D-01 -0.16666666666667D+00
           -0.33333333333333D+00  0.83333333333333D-01 -0.16666666666667D+00
           -0.25000000000000D+00  0.83333333333333D-01 -0.16666666666667D+00
           -0.16666666666667D+00  0.83333333333333D-01 -0.16666666666667D+00
           -0.83333333333333D-01  0.83333333333333D-01 -0.16666666666667D+00
            0.00000000000000D+00  0.16666666666667D+00 -0.16666666666667D+00
            0.83333333333333D-01  0.16666666666667D+00 -0.16666666666667D+00
            0.16666666666667D+00  0.16666666666667D+00 -0.16666666666667D+00
            0.25000000000000D+00  0.16666666666667D+00 -0.16666666666667D+00
            0.33333333333333D+00  0.16666666666667D+00 -0.16666666666667D+00
            0.41666666666667D+00  0.16666666666667D+00 -0.16666666666667D+00
            0.50000000000000D+00  0.16666666666667D+00 -0.16666666666667D+00
           -0.41666666666667D+00  0.16666666666667D+00 -0.16666666666667D+00
           -0.33333333333333D+00  0.16666666666667D+00 -0.16666666666667D+00
           -0.25000000000000D+00  0.16666666666667D+00 -0.16666666666667D+00
           -0.16666666666667D+00  0.16666666666667D+00 -0.16666666666667D+00
           -0.83333333333333D-01  0.16666666666667D+00 -0.16666666666667D+00
            0.00000000000000D+00  0.25000000000000D+00 -0.16666666666667D+00
            0.83333333333333D-01  0.25000000000000D+00 -0.16666666666667D+00
            0.16666666666667D+00  0.25000000000000D+00 -0.16666666666667D+00
            0.25000000000000D+00  0.25000000000000D+00 -0.16666666666667D+00
            0.33333333333333D+00  0.25000000000000D+00 -0.16666666666667D+00
            0.41666666666667D+00  0.25000000000000D+00 -0.16666666666667D+00
            0.50000000000000D+00  0.25000000000000D+00 -0.16666666666667D+00
           -0.41666666666667D+00  0.25000000000000D+00 -0.16666666666667D+00
           -0.33333333333333D+00  0.25000000000000D+00 -0.16666666666667D+00
           -0.25000000000000D+00  0.25000000000000D+00 -0.16666666666667D+00
           -0.16666666666667D+00  0.25000000000000D+00 -0.16666666666667D+00
           -0.83333333333333D-01  0.25000000000000D+00 -0.16666666666667D+00
            0.00000000000000D+00  0.33333333333333D+00 -0.16666666666667D+00
            0.83333333333333D-01  0.33333333333333D+00 -0.16666666666667D+00
            0.16666666666667D+00  0.33333333333333D+00 -0.16666666666667D+00
            0.25000000000000D+00  0.33333333333333D+00 -0.16666666666667D+00
            0.33333333333333D+00  0.33333333333333D+00 -0.16666666666667D+00
            0.41666666666667D+00  0.33333333333333D+00 -0.16666666666667D+00
            0.50000000000000D+00  0.33333333333333D+00 -0.16666666666667D+00
           -0.41666666666667D+00  0.33333333333333D+00 -0.16666666666667D+00
           -0.33333333333333D+00  0.33333333333333D+00 -0.16666666666667D+00
           -0.25000000000000D+00  0.33333333333333D+00 -0.16666666666667D+00
           -0.16666666666667D+00  0.33333333333333D+00 -0.16666666666667D+00
           -0.83333333333333D-01  0.33333333333333D+00 -0.16666666666667D+00
            0.00000000000000D+00  0.41666666666667D+00 -0.16666666666667D+00
            0.83333333333333D-01  0.41666666666667D+00 -0.16666666666667D+00
            0.16666666666667D+00  0.41666666666667D+00 -0.16666666666667D+00
            0.25000000000000D+00  0.41666666666667D+00 -0.16666666666667D+00
            0.33333333333333D+00  0.41666666666667D+00 -0.16666666666667D+00
            0.41666666666667D+00  0.41666666666667D+00 -0.16666666666667D+00
            0.50000000000000D+00  0.41666666666667D+00 -0.16666666666667D+00
           -0.41666666666667D+00  0.41666666666667D+00 -0.16666666666667D+00
           -0.33333333333333D+00  0.41666666666667D+00 -0.16666666666667D+00
           -0.25000000000000D+00  0.41666666666667D+00 -0.16666666666667D+00
           -0.16666666666667D+00  0.41666666666667D+00 -0.16666666666667D+00
           -0.83333333333333D-01  0.41666666666667D+00 -0.16666666666667D+00
            0.00000000000000D+00  0.50000000000000D+00 -0.16666666666667D+00
            0.83333333333333D-01  0.50000000000000D+00 -0.16666666666667D+00
            0.16666666666667D+00  0.50000000000000D+00 -0.16666666666667D+00
            0.25000000000000D+00  0.50000000000000D+00 -0.16666666666667D+00
            0.33333333333333D+00  0.50000000000000D+00 -0.16666666666667D+00
            0.41666666666667D+00  0.50000000000000D+00 -0.16666666666667D+00
            0.50000000000000D+00  0.50000000000000D+00 -0.16666666666667D+00
           -0.41666666666667D+00  0.50000000000000D+00 -0.16666666666667D+00
           -0.33333333333333D+00  0.50000000000000D+00 -0.16666666666667D+00
           -0.25000000000000D+00  0.50000000000000D+00 -0.16666666666667D+00
           -0.16666666666667D+00  0.50000000000000D+00 -0.16666666666667D+00
           -0.83333333333333D-01  0.50000000000000D+00 -0.16666666666667D+00
            0.00000000000000D+00 -0.41666666666667D+00 -0.16666666666667D+00
            0.83333333333333D-01 -0.41666666666667D+00 -0.16666666666667D+00
            0.16666666666667D+00 -0.41666666666667D+00 -0.16666666666667D+00
            0.25000000000000D+00 -0.41666666666667D+00 -0.16666666666667D+00
            0.33333333333333D+00 -0.41666666666667D+00 -0.16666666666667D+00
            0.41666666666667D+00 -0.41666666666667D+00 -0.16666666666667D+00
            0.50000000000000D+00 -0.41666666666667D+00 -0.16666666666667D+00
           -0.41666666666667D+00 -0.41666666666667D+00 -0.16666666666667D+00
           -0.33333333333333D+00 -0.41666666666667D+00 -0.16666666666667D+00
           -0.25000000000000D+00 -0.41666666666667D+00 -0.16666666666667D+00
           -0.16666666666667D+00 -0.41666666666667D+00 -0.16666666666667D+00
           -0.83333333333333D-01 -0.41666666666667D+00 -0.16666666666667D+00
            0.00000000000000D+00 -0.33333333333333D+00 -0.16666666666667D+00
            0.83333333333333D-01 -0.33333333333333D+00 -0.16666666666667D+00
            0.16666666666667D+00 -0.33333333333333D+00 -0.16666666666667D+00
            0.25000000000000D+00 -0.33333333333333D+00 -0.16666666666667D+00
            0.33333333333333D+00 -0.33333333333333D+00 -0.16666666666667D+00
            0.41666666666667D+00 -0.33333333333333D+00 -0.16666666666667D+00
            0.50000000000000D+00 -0.33333333333333D+00 -0.16666666666667D+00
           -0.41666666666667D+00 -0.33333333333333D+00 -0.16666666666667D+00
           -0.33333333333333D+00 -0.33333333333333D+00 -0.16666666666667D+00
           -0.25000000000000D+00 -0.33333333333333D+00 -0.16666666666667D+00
           -0.16666666666667D+00 -0.33333333333333D+00 -0.16666666666667D+00
           -0.83333333333333D-01 -0.33333333333333D+00 -0.16666666666667D+00
            0.00000000000000D+00 -0.25000000000000D+00 -0.16666666666667D+00
            0.83333333333333D-01 -0.25000000000000D+00 -0.16666666666667D+00
            0.16666666666667D+00 -0.25000000000000D+00 -0.16666666666667D+00
            0.25000000000000D+00 -0.25000000000000D+00 -0.16666666666667D+00
            0.33333333333333D+00 -0.25000000000000D+00 -0.16666666666667D+00
            0.41666666666667D+00 -0.25000000000000D+00 -0.16666666666667D+00
            0.50000000000000D+00 -0.25000000000000D+00 -0.16666666666667D+00
           -0.41666666666667D+00 -0.25000000000000D+00 -0.16666666666667D+00
           -0.33333333333333D+00 -0.25000000000000D+00 -0.16666666666667D+00
           -0.25000000000000D+00 -0.25000000000000D+00 -0.16666666666667D+00
           -0.16666666666667D+00 -0.25000000000000D+00 -0.16666666666667D+00
           -0.83333333333333D-01 -0.25000000000000D+00 -0.16666666666667D+00
            0.00000000000000D+00 -0.16666666666667D+00 -0.16666666666667D+00
            0.83333333333333D-01 -0.16666666666667D+00 -0.16666666666667D+00
            0.16666666666667D+00 -0.16666666666667D+00 -0.16666666666667D+00
            0.25000000000000D+00 -0.16666666666667D+00 -0.16666666666667D+00
            0.33333333333333D+00 -0.16666666666667D+00 -0.16666666666667D+00
            0.41666666666667D+00 -0.16666666666667D+00 -0.16666666666667D+00
            0.50000000000000D+00 -0.16666666666667D+00 -0.16666666666667D+00
           -0.41666666666667D+00 -0.16666666666667D+00 -0.16666666666667D+00
           -0.33333333333333D+00 -0.16666666666667D+00 -0.16666666666667D+00
           -0.25000000000000D+00 -0.16666666666667D+00 -0.16666666666667D+00
           -0.16666666666667D+00 -0.16666666666667D+00 -0.16666666666667D+00
           -0.83333333333333D-01 -0.16666666666667D+00 -0.16666666666667D+00
            0.00000000000000D+00 -0.83333333333333D-01 -0.16666666666667D+00
            0.83333333333333D-01 -0.83333333333333D-01 -0.16666666666667D+00
            0.16666666666667D+00 -0.83333333333333D-01 -0.16666666666667D+00
            0.25000000000000D+00 -0.83333333333333D-01 -0.16666666666667D+00
            0.33333333333333D+00 -0.83333333333333D-01 -0.16666666666667D+00
            0.41666666666667D+00 -0.83333333333333D-01 -0.16666666666667D+00
            0.50000000000000D+00 -0.83333333333333D-01 -0.16666666666667D+00
           -0.41666666666667D+00 -0.83333333333333D-01 -0.16666666666667D+00
           -0.33333333333333D+00 -0.83333333333333D-01 -0.16666666666667D+00
           -0.25000000000000D+00 -0.83333333333333D-01 -0.16666666666667D+00
           -0.16666666666667D+00 -0.83333333333333D-01 -0.16666666666667D+00
           -0.83333333333333D-01 -0.83333333333333D-01 -0.16666666666667D+00
    kptnrm  0.10000000000000D+01
     ngfft        30   30   90
    nspden         1
   nspinor         1
       occ  0.20000000000000D+01  0.20000000000000D+01  0.20000000000000D+01
            0.20000000000000D+01  0.20000000000000D+01  0.20000000000000D+01
            0.20000000000000D+01  0.20000000000000D+01  0.20000000000000D+01
            0.20000000000000D+01  0.20000000000000D+01  0.20000000000000D+01
            0.20000000000000D+01  0.20000000000000D+01  0.20000000000000D+01
            0.20000000000000D+01  0.20000000000000D+01  0.20000000000000D+01
            0.20000000000000D+01  0.20000000000000D+01  0.20000000000000D+01
            0.20000000000000D+01  0.20000000000000D+01  0.20000000000000D+01
            0.20000000000000D+01  0.20000000000000D+01  0.20000000000000D+01
            0.20000000000000D+01  0.20000000000000D+01  0.20000000000000D+01
            0.20000000000000D+01  0.20000000000000D+01  0.20000000000000D+01
            0.20000000000000D+01  0.20000000000000D+01  0.20000000000000D+01
            0.20000000000000D+01  0.20000000000000D+01  0.20000000000000D+01
            0.20000000000000D+01  0.20000000000000D+01  0.20000000000000D+01
            0.20000000000000D+01  0.20000000000000D+01  0.20000000000000D+01
            0.20000000000000D+01  0.20000000000000D+01  0.20000000000000D+01
            0.20000000000000D+01  0.20000000000000D+01  0.20000000000000D+01
            0.20000000000000D+01  0.20000000000000D+01  0.20000000000000D+01
            0.20000000000000D+01  0.20000000000000D+01  0.20000000000000D+01
            0.20000000000000D+01  0.20000000000000D+01  0.20000000000000D+01
            0.20000000000000D+01  0.14740566435705D+01  0.14740566418179D+01
            0.00000000000000D+00  0.00000000000000D+00  0.00000000000000D+00
            0.00000000000000D+00  0.00000000000000D+00  0.00000000000000D+00
            0.00000000000000D+00  0.00000000000000D+00  0.00000000000000D+00
            0.00000000000000D+00  0.00000000000000D+00  0.00000000000000D+00
            0.00000000000000D+00  0.00000000000000D+00  0.00000000000000D+00
            0.00000000000000D+00  0.00000000000000D+00
     rprim  0.10000000000000D+01  0.00000000000000D+00  0.00000000000000D+00
            0.00000000000000D+00  0.10000000000000D+01  0.00000000000000D+00
            0.00000000000000D+00  0.00000000000000D+00  0.10000000000000D+01
  dfpt_sciss  0.00000000000000D+00
    spinat  0.00000000000000D+00  0.00000000000000D+00  0.00000000000000D+00
            0.00000000000000D+00  0.00000000000000D+00  0.00000000000000D+00
            0.00000000000000D+00  0.00000000000000D+00  0.00000000000000D+00
            0.00000000000000D+00  0.00000000000000D+00  0.00000000000000D+00
            0.00000000000000D+00  0.00000000000000D+00  0.00000000000000D+00
            0.00000000000000D+00  0.00000000000000D+00  0.00000000000000D+00
            0.00000000000000D+00  0.00000000000000D+00  0.00000000000000D+00
            0.00000000000000D+00  0.00000000000000D+00  0.00000000000000D+00
            0.00000000000000D+00  0.00000000000000D+00  0.00000000000000D+00
            0.00000000000000D+00  0.00000000000000D+00  0.00000000000000D+00
            0.00000000000000D+00  0.00000000000000D+00  0.00000000000000D+00
            0.00000000000000D+00  0.00000000000000D+00  0.00000000000000D+00
    symafm         1    1    1    1    1    1    1    1    1    1    1    1
                   1    1    1    1
    symrel         1    0    0    0    1    0    0    0    1
                  -1    0    0    0   -1    0    0    0   -1
                  -1    0    0    0    1    0    0    0   -1
                   1    0    0    0   -1    0    0    0    1
                  -1    0    0    0   -1    0    0    0    1
                   1    0    0    0    1    0    0    0   -1
                   1    0    0    0   -1    0    0    0   -1
                  -1    0    0    0    1    0    0    0    1
                   0    1    0    1    0    0    0    0    1
                   0   -1    0   -1    0    0    0    0   -1
                   0   -1    0    1    0    0    0    0   -1
                   0    1    0   -1    0    0    0    0    1
                   0   -1    0   -1    0    0    0    0    1
                   0    1    0    1    0    0    0    0   -1
                   0    1    0   -1    0    0    0    0   -1
                   0   -1    0    1    0    0    0    0    1
     tnons  0.00000000000000D+00  0.00000000000000D+00  0.00000000000000D+00
            0.00000000000000D+00  0.00000000000000D+00 -0.11102230246252D-15
            0.00000000000000D+00  0.00000000000000D+00 -0.11102230246252D-15
            0.00000000000000D+00  0.00000000000000D+00  0.00000000000000D+00
            0.00000000000000D+00  0.00000000000000D+00  0.00000000000000D+00
            0.00000000000000D+00  0.00000000000000D+00 -0.11102230246252D-15
            0.00000000000000D+00  0.00000000000000D+00 -0.11102230246252D-15
            0.00000000000000D+00  0.00000000000000D+00  0.00000000000000D+00
            0.00000000000000D+00  0.00000000000000D+00  0.00000000000000D+00
            0.00000000000000D+00  0.00000000000000D+00 -0.11102230246252D-15
            0.00000000000000D+00  0.00000000000000D+00 -0.11102230246252D-15
            0.00000000000000D+00  0.00000000000000D+00  0.00000000000000D+00
            0.00000000000000D+00  0.00000000000000D+00  0.00000000000000D+00
            0.00000000000000D+00  0.00000000000000D+00 -0.11102230246252D-15
            0.00000000000000D+00  0.00000000000000D+00 -0.11102230246252D-15
            0.00000000000000D+00  0.00000000000000D+00  0.00000000000000D+00
    tolwfr  0.10000000000000D+01
   tphysel  0.00000000000000D+00
    tsmear  0.18374662698981D-02
     typat         1    2    2    3    3    3    4    4    4    4    4    4
       wtk  0.11574074074074D-02  0.11574074074074D-02  0.11574074074074D-02
            0.11574074074074D-02  0.11574074074074D-02  0.11574074074074D-02
            0.11574074074074D-02  0.11574074074074D-02  0.11574074074074D-02
            0.11574074074074D-02  0.11574074074074D-02  0.11574074074074D-02
            0.11574074074074D-02  0.11574074074074D-02  0.11574074074074D-02
            0.11574074074074D-02  0.11574074074074D-02  0.11574074074074D-02
            0.11574074074074D-02  0.11574074074074D-02  0.11574074074074D-02
            0.11574074074074D-02  0.11574074074074D-02  0.11574074074074D-02
            0.11574074074074D-02  0.11574074074074D-02  0.11574074074074D-02
            0.11574074074074D-02  0.11574074074074D-02  0.11574074074074D-02
            0.11574074074074D-02  0.11574074074074D-02  0.11574074074074D-02
            0.11574074074074D-02  0.11574074074074D-02  0.11574074074074D-02
            0.11574074074074D-02  0.11574074074074D-02  0.11574074074074D-02
            0.11574074074074D-02  0.11574074074074D-02  0.11574074074074D-02
            0.11574074074074D-02  0.11574074074074D-02  0.11574074074074D-02
            0.11574074074074D-02  0.11574074074074D-02  0.11574074074074D-02
            0.11574074074074D-02  0.11574074074074D-02  0.11574074074074D-02
            0.11574074074074D-02  0.11574074074074D-02  0.11574074074074D-02
            0.11574074074074D-02  0.11574074074074D-02  0.11574074074074D-02
            0.11574074074074D-02  0.11574074074074D-02  0.11574074074074D-02
            0.11574074074074D-02  0.11574074074074D-02  0.11574074074074D-02
            0.11574074074074D-02  0.11574074074074D-02  0.11574074074074D-02
            0.11574074074074D-02  0.11574074074074D-02  0.11574074074074D-02
            0.11574074074074D-02  0.11574074074074D-02  0.11574074074074D-02
            0.11574074074074D-02  0.11574074074074D-02  0.11574074074074D-02
            0.11574074074074D-02  0.11574074074074D-02  0.11574074074074D-02
            0.11574074074074D-02  0.11574074074074D-02  0.11574074074074D-02
            0.11574074074074D-02  0.11574074074074D-02  0.11574074074074D-02
            0.11574074074074D-02  0.11574074074074D-02  0.11574074074074D-02
            0.11574074074074D-02  0.11574074074074D-02  0.11574074074074D-02
            0.11574074074074D-02  0.11574074074074D-02  0.11574074074074D-02
            0.11574074074074D-02  0.11574074074074D-02  0.11574074074074D-02
            0.11574074074074D-02  0.11574074074074D-02  0.11574074074074D-02
            0.11574074074074D-02  0.11574074074074D-02  0.11574074074074D-02
            0.11574074074074D-02  0.11574074074074D-02  0.11574074074074D-02
            0.11574074074074D-02  0.11574074074074D-02  0.11574074074074D-02
            0.11574074074074D-02  0.11574074074074D-02  0.11574074074074D-02
            0.11574074074074D-02  0.11574074074074D-02  0.11574074074074D-02
            0.11574074074074D-02  0.11574074074074D-02  0.11574074074074D-02
            0.11574074074074D-02  0.11574074074074D-02  0.11574074074074D-02
            0.11574074074074D-02  0.11574074074074D-02  0.11574074074074D-02
            0.11574074074074D-02  0.11574074074074D-02  0.11574074074074D-02
            0.11574074074074D-02  0.11574074074074D-02  0.11574074074074D-02
            0.11574074074074D-02  0.11574074074074D-02  0.11574074074074D-02
            0.11574074074074D-02  0.11574074074074D-02  0.11574074074074D-02
            0.11574074074074D-02  0.11574074074074D-02  0.11574074074074D-02
            0.11574074074074D-02  0.11574074074074D-02  0.11574074074074D-02
            0.11574074074074D-02  0.11574074074074D-02  0.11574074074074D-02
            0.11574074074074D-02  0.11574074074074D-02  0.11574074074074D-02
            0.11574074074074D-02  0.11574074074074D-02  0.11574074074074D-02
            0.11574074074074D-02  0.11574074074074D-02  0.11574074074074D-02
            0.11574074074074D-02  0.11574074074074D-02  0.11574074074074D-02
            0.11574074074074D-02  0.11574074074074D-02  0.11574074074074D-02
            0.11574074074074D-02  0.11574074074074D-02  0.11574074074074D-02
            0.11574074074074D-02  0.11574074074074D-02  0.11574074074074D-02
            0.11574074074074D-02  0.11574074074074D-02  0.11574074074074D-02
            0.11574074074074D-02  0.11574074074074D-02  0.11574074074074D-02
            0.11574074074074D-02  0.11574074074074D-02  0.11574074074074D-02
            0.11574074074074D-02  0.11574074074074D-02  0.11574074074074D-02
            0.11574074074074D-02  0.11574074074074D-02  0.11574074074074D-02
            0.11574074074074D-02  0.11574074074074D-02  0.11574074074074D-02
            0.11574074074074D-02  0.11574074074074D-02  0.11574074074074D-02
            0.11574074074074D-02  0.11574074074074D-02  0.11574074074074D-02
            0.11574074074074D-02  0.11574074074074D-02  0.11574074074074D-02
            0.11574074074074D-02  0.11574074074074D-02  0.11574074074074D-02
            0.11574074074074D-02  0.11574074074074D-02  0.11574074074074D-02
            0.11574074074074D-02  0.11574074074074D-02  0.11574074074074D-02
            0.11574074074074D-02  0.11574074074074D-02  0.11574074074074D-02
            0.11574074074074D-02  0.11574074074074D-02  0.11574074074074D-02
            0.11574074074074D-02  0.11574074074074D-02  0.11574074074074D-02
            0.11574074074074D-02  0.11574074074074D-02  0.11574074074074D-02
            0.11574074074074D-02  0.11574074074074D-02  0.11574074074074D-02
            0.11574074074074D-02  0.11574074074074D-02  0.11574074074074D-02
            0.11574074074074D-02  0.11574074074074D-02  0.11574074074074D-02
            0.11574074074074D-02  0.11574074074074D-02  0.11574074074074D-02
            0.11574074074074D-02  0.11574074074074D-02  0.11574074074074D-02
            0.11574074074074D-02  0.11574074074074D-02  0.11574074074074D-02
            0.11574074074074D-02  0.11574074074074D-02  0.11574074074074D-02
            0.11574074074074D-02  0.11574074074074D-02  0.11574074074074D-02
            0.11574074074074D-02  0.11574074074074D-02  0.11574074074074D-02
            0.11574074074074D-02  0.11574074074074D-02  0.11574074074074D-02
            0.11574074074074D-02  0.11574074074074D-02  0.11574074074074D-02
            0.11574074074074D-02  0.11574074074074D-02  0.11574074074074D-02
            0.11574074074074D-02  0.11574074074074D-02  0.11574074074074D-02
            0.11574074074074D-02  0.11574074074074D-02  0.11574074074074D-02
            0.11574074074074D-02  0.11574074074074D-02  0.11574074074074D-02
            0.11574074074074D-02  0.11574074074074D-02  0.11574074074074D-02
            0.11574074074074D-02  0.11574074074074D-02  0.11574074074074D-02
            0.11574074074074D-02  0.11574074074074D-02  0.11574074074074D-02
            0.11574074074074D-02  0.11574074074074D-02  0.11574074074074D-02
[...]
   3   7   2  10  0.58768276634310D-02  0.49313733263654D-06
   1   8   2  10  0.66503784696403D-16 -0.94278961734642D-16
   2   8   2  10  0.25719921106944D-14  0.21709057753322D-15
   3   8   2  10  0.50036503347364D-17  0.47944140730453D-16
   1   9   2  10 -0.19629365256744D-16  0.15737649606685D-16
   2   9   2  10  0.93819664842405D-15  0.12243965377572D-16
   3   9   2  10  0.36892153997821D-15 -0.27116830803694D-17
   1  10   2  10  0.27774752114485D-15  0.00000000000000D+00
   2  10   2  10  0.14518406704349D+01  0.00000000000000D+00
   3  10   2  10  0.31676157540633D-14  0.00000000000000D+00
   1  11   2  10 -0.70339727743328D-16  0.31558704038170D-16
   2  11   2  10  0.27642538888097D-14 -0.30430170418051D-15
   3  11   2  10 -0.30456017354422D+00 -0.19733419637537D-05
   1  12   2  10  0.13462390863633D-15 -0.23222855277035D-18
   2  12   2  10 -0.32429102294115D+00 -0.47189337149534D-06
   3  12   2  10 -0.50604844883162D-15  0.51236556303084D-15
   1   1   3  10  0.60602440400387D-15 -0.59745325790433D-15
   2   1   3  10  0.57038227942337D-15 -0.35453909114572D-15
   3   1   3  10  0.28149816395625D-14 -0.16294271185698D-15
   1   2   3  10  0.29164344302707D-14 -0.45380067527041D-14
   2   2   3  10 -0.19017296788238D-14 -0.46444091652420D-14
   3   2   3  10  0.39344958438283D-15 -0.20325404498744D-15
   1   3   3  10 -0.82635448376531D-15 -0.34992147867248D-15
   2   3   3  10 -0.39747484176915D-15 -0.38623087892923D-15
   3   3   3  10  0.80082256981169D-14 -0.96511994444565D-16
   1   4   3  10  0.28858674281279D-15  0.10982816662322D-14
   2   4   3  10 -0.40411049761649D-15  0.12434325604280D-14
   3   4   3  10  0.81945613385824D+01  0.66203615764951D-05
   1   5   3  10 -0.75404659444420D-17  0.64254893463391D-16
   2   5   3  10 -0.40043730610854D-16 -0.19996034635141D-14
   3   5   3  10  0.27155724436052D+00  0.43849899123241D-06
   1   6   3  10 -0.39914128106899D-15 -0.20572561694364D-14
   2   6   3  10  0.60850635009771D-15 -0.23808475234133D-14
   3   6   3  10 -0.79729165056650D+02 -0.87596398595910D-05
   1   7   3  10 -0.24868862047919D-16 -0.34013034469843D-16
   2   7   3  10 -0.54636896020115D-01 -0.71919585711961D-06
   3   7   3  10 -0.35447938436836D-14 -0.59061397329926D-16
   1   8   3  10 -0.14222816372324D+01  0.73633515374329D-06
   2   8   3  10  0.50036503347364D-17  0.47944140730453D-16
   3   8   3  10  0.10339436645589D-13 -0.64527155526815D-14
   1   9   3  10 -0.54636896020118D-01 -0.71919585704667D-06
   2   9   3  10  0.36892153997821D-15 -0.27116830803694D-17
   3   9   3  10 -0.40343735992749D-14  0.46988794505588D-17
   1  10   3  10  0.35513667690541D-14  0.00000000000000D+00
   2  10   3  10  0.31676158731773D-14  0.00000000000000D+00
   3  10   3  10  0.87960675805495D+02  0.00000000000000D+00
   1  11   3  10 -0.24247034987771D-15 -0.50453048004076D-16
   2  11   3  10 -0.14222816372324D+01  0.73633515477814D-06
   3  11   3  10  0.83545716824111D-14 -0.63932045066484D-14
   1  12   3  10  0.85466710463938D-16  0.10435903232757D-15
   2  12   3  10 -0.50604844883162D-15  0.51236556303084D-15
   3  12   3  10  0.46786750607675D+01 -0.68018103968351D-14
   1   1   1  11 -0.19964955212922D-14 -0.46781123827921D-14
   2   1   1  11  0.50128133567279D-15  0.69950620547424D-16
   3   1   1  11  0.40681983834363D+00 -0.15864579321993D-05
   1   2   1  11  0.28372188026341D-14 -0.12081865521391D-14
   2   2   1  11 -0.12266967237116D-14  0.22277139077074D-15
   3   2   1  11 -0.15894341981075D+00 -0.52383244044384D-07
   1   3   1  11  0.59668690782398D-15  0.21473574020345D-16
   2   3   1  11 -0.13814924093524D-14  0.60755834356170D-16
   3   3   1  11  0.13374935734538D+00 -0.10936793589402D-05
   1   4   1  11 -0.61220743829366D-14 -0.11092068149692D-13
   2   4   1  11  0.13189700746236D-15 -0.13902454634434D-14
   3   4   1  11 -0.10677922115454D-15  0.42824502476335D-16
   1   5   1  11  0.72695381522315D-14 -0.66874561772207D-15
   2   5   1  11 -0.18303504642520D-15 -0.21319926990062D-15
   3   5   1  11 -0.10563444939233D-15  0.24851683337506D-15
   1   6   1  11  0.28085185391776D-15 -0.36601566840380D-15
   2   6   1  11 -0.66876171521105D-15  0.27665418712485D-16
   3   6   1  11 -0.64010252742577D-15 -0.54826473080800D-15
   1   7   1  11  0.83045521447251D+00  0.17995739598869D-06
   2   7   1  11 -0.10600870571760D-15 -0.23331437644814D-16
   3   7   1  11 -0.97904213819837D-16  0.23346674937784D-15
   1   8   1  11  0.22282342177483D-14  0.00000000000000D+00
   2   8   1  11  0.23432300788865D+01  0.00000000000000D+00
   3   8   1  11  0.14153042343165D-14  0.00000000000000D+00
   1   9   1  11  0.31626906675457D-15  0.71421803738061D-17
   2   9   1  11  0.30568332515570D+00 -0.47834341645850D-15
   3   9   1  11 -0.94205037379558D-15  0.10266778779465D-14
   1  10   1  11  0.27572047375740D-14 -0.20239491039048D-15
   2  10   1  11 -0.70339727743328D-16 -0.31558704038170D-16
   3  10   1  11 -0.24247034987771D-15  0.50453048004076D-16
   1  11   1  11  0.33490314695939D+01  0.00000000000000D+00
   2  11   1  11 -0.13326003305160D-14  0.00000000000000D+00
   3  11   1  11  0.12689685489969D-13  0.00000000000000D+00
   1  12   1  11  0.10303412756153D-14 -0.16060142650404D-16
   2  12   1  11 -0.56724977401057D-16 -0.12886677153234D-17
   3  12   1  11  0.24904384095494D-16  0.34338764655062D-16
   1   1   2  11  0.50128133567279D-15  0.69950606717999D-16
   2   1   2  11  0.19177564950502D-14  0.25124638903468D-14
   3   1   2  11 -0.65804006797626D-14  0.23343391438060D-15
   1   2   2  11 -0.12266967237116D-14  0.22277139077074D-15
   2   2   2  11  0.23271224956733D-14  0.11279489568382D-14
   3   2   2  11  0.21245024727166D-14 -0.13207057046287D-15
   1   3   2  11 -0.13814924027350D-14  0.60755827738725D-16
   2   3   2  11  0.20400511992037D-15 -0.80729642955069D-17
   3   3   2  11 -0.10481153906164D-14 -0.27262042566232D-16
   1   4   2  11  0.13189700746236D-15 -0.13902453840341D-14
   2   4   2  11  0.23034008163553D-13  0.30105221118881D-13
   3   4   2  11  0.83310699232732D+00  0.18706426985193D-05
   1   5   2  11 -0.18303504642520D-15 -0.21319927651806D-15
   2   5   2  11  0.82568195054670D-14  0.50951348096808D-15
   3   5   2  11  0.33433843840069D+00  0.61895010992630D-07
   1   6   2  11 -0.66876172017414D-15  0.27665422021207D-16
   2   6   2  11  0.20033875380661D-14  0.35416699554212D-15
   3   6   2  11  0.17656397350714D+00  0.83971803496244D-07
   1   7   2  11 -0.10600870571760D-15 -0.23331437644814D-16
   2   7   2  11  0.17757858016200D+00  0.13104303493530D-06
   3   7   2  11 -0.86100974064722D-15  0.40202856102628D-15
   1   8   2  11  0.15115223083614D+01  0.00000000000000D+00
   2   8   2  11  0.19477335628795D-14  0.00000000000000D+00
   3   8   2  11 -0.17282410490991D-17  0.00000000000000D+00
   1   9   2  11 -0.39281568595507D-01 -0.47834344127392D-15
   2   9   2  11  0.18463746760594D-15  0.30885678832430D-16
   3   9   2  11  0.23238718870784D-15  0.11136904135430D-14
   1  10   2  11 -0.70339731052050D-16 -0.31558690803280D-16
   2  10   2  11  0.27642538888097D-14  0.30430170418051D-15
   3  10   2  11 -0.14222816372324D+01 -0.73633515477814D-06
   1  11   2  11 -0.13326003305160D-14  0.00000000000000D+00
   2  11   2  11  0.57571629059566D+01  0.00000000000000D+00
   3  11   2  11 -0.54966205367328D-15  0.00000000000000D+00
   1  12   2  11 -0.56724979055418D-16 -0.12886677153234D-17
   2  12   2  11  0.87653760501788D-15  0.21335536004906D-16
   3  12   2  11  0.54640562359988D-01 -0.67331290144030D-06
   1   1   3  11  0.26821756015382D+00 -0.10773635683320D-05
   2   1   3  11 -0.65804004150648D-14  0.23343386144104D-15
   3   1   3  11 -0.63282720587446D-14 -0.14189548755272D-13
   1   2   3  11 -0.60583515082125D+00 -0.12323544170505D-05
   2   2   3  11  0.21245024727166D-14 -0.13207057046287D-15
   3   2   3  11 -0.13517673026158D-13 -0.16034185672660D-13
   1   3   3  11  0.18611863831062D+00  0.75588737131875D-06
   2   3   3  11 -0.10481153906164D-14 -0.27262042566232D-16
   3   3   3  11  0.85049644858121D-14 -0.36392460604336D-15
   1   4   3  11 -0.10677922115454D-15  0.42824502476335D-16
   2   4   3  11 -0.76610652530746D-01 -0.78159635363525D-05
   3   4   3  11 -0.11514651033110D-13 -0.91509891425854D-13
   1   5   3  11 -0.10563444939233D-15  0.24851683337506D-15
   2   5   3  11 -0.45931468733016D+00  0.95528462904799D-06
   3   5   3  11  0.30158619648949D-13  0.16134710941149D-13
   1   6   3  11 -0.64010253735194D-15 -0.54826472749928D-15
   2   6   3  11 -0.65787605828447D-01 -0.15385621073620D-05
   3   6   3  11  0.20218214133146D-13 -0.66092341696678D-15
   1   7   3  11 -0.97904213819837D-16  0.23346674937784D-15
   2   7   3  11 -0.86100974064722D-15  0.40202856102628D-15
   3   7   3  11 -0.69312981788246D+01 -0.23374399233930D-05
   1   8   3  11  0.14153042343165D-14  0.00000000000000D+00
   2   8   3  11 -0.17282410490990D-17  0.00000000000000D+00
   3   8   3  11  0.27853486262385D-14  0.00000000000000D+00
   1   9   3  11 -0.94205037379558D-15  0.10266779044163D-14
   2   9   3  11  0.23238718870784D-15  0.11136904400128D-14
   3   9   3  11 -0.93206611778424D-16 -0.38704042436156D-15
   1  10   3  11 -0.24247034987771D-15  0.50453048004076D-16
   2  10   3  11 -0.30456017354422D+00  0.19733419637537D-05
   3  10   3  11  0.83545716824111D-14  0.63932045066484D-14
   1  11   3  11  0.12689685278211D-13  0.00000000000000D+00
   2  11   3  11 -0.54966205367328D-15  0.00000000000000D+00
   3  11   3  11  0.23168274041496D+02  0.00000000000000D+00
   1  12   3  11  0.24904384095494D-16  0.34338764655062D-16
   2  12   3  11 -0.58768276634306D-02  0.49313733261453D-06
   3  12   3  11  0.62096082967152D-14  0.28644118802308D-15
   1   1   1  12 -0.21812540590285D-14  0.91179348273433D-16
   2   1   1  12  0.37355940049295D-01 -0.13934625926290D-06
   3   1   1  12  0.25983959110413D-14 -0.45467961749867D-16
   1   2   1  12  0.32869089788175D-14  0.14875416757637D-15
   2   2   1  12  0.57405012785424D-01  0.29364636262878D-06
   3   2   1  12  0.20753531968405D-14  0.61016947902784D-15
   1   3   1  12 -0.11790026419948D-14 -0.20470608718078D-16
   2   3   1  12 -0.44261149120587D-01 -0.81650581098630D-06
   3   3   1  12 -0.29375604784358D-14  0.45187619279322D-14
   1   4   1  12 -0.14681307052924D-01 -0.12848877534429D-06
   2   4   1  12  0.96745854510744D-16  0.94081259443986D-17
   3   4   1  12  0.13809123013962D-17 -0.64222931990284D-16
   1   5   1  12 -0.11308042753806D+00 -0.59560320454732D-06
   2   5   1  12  0.34876613747037D-15 -0.76504196142105D-16
   3   5   1  12  0.50254975382306D-15 -0.11149445710354D-14
   1   6   1  12  0.68773248223116D+00 -0.34842959944729D-06
   2   6   1  12  0.30516379163338D-16 -0.34597949236465D-16
   3   6   1  12 -0.39911110900391D-15 -0.20519919895769D-14
   1   7   1  12 -0.14409054130828D-14  0.46904095180146D-16
   2   7   1  12  0.70400707498085D-16  0.31517772464260D-16
   3   7   1  12  0.24259239706808D-15 -0.50780152221952D-16
   1   8   1  12  0.77748040548667D-15 -0.12143344631944D-17
   2   8   1  12 -0.39210855460261D-15  0.64631191423083D-17
   3   8   1  12 -0.58768276634300D-02 -0.49313733260305D-06
   1   9   1  12 -0.10694587332787D-14 -0.34924544335343D-15
   2   9   1  12  0.57232558958257D-17 -0.11613251154592D-15
   3   9   1  12  0.30456017354436D+00  0.19733419650378D-05
   1  10   1  12 -0.32429102294115D+00 -0.47189337130043D-06
   2  10   1  12  0.13462390863633D-15  0.23222855277035D-18
   3  10   1  12  0.85466710463938D-16 -0.10435903232757D-15
   1  11   1  12  0.10303412756153D-14  0.16060142650404D-16
   2  11   1  12 -0.56724985672863D-16  0.12886677153234D-17
   3  11   1  12  0.24904384095494D-16 -0.34338764655062D-16
   1  12   1  12  0.14518406704351D+01  0.00000000000000D+00
   2  12   1  12  0.23766927338422D-15  0.00000000000000D+00
   3  12   1  12 -0.19851514773458D-14  0.00000000000000D+00
   1   1   2  12  0.37355940049296D-01 -0.13934625926290D-06
   2   1   2  12 -0.21903798209219D-14  0.57837656945632D-16
   3   1   2  12  0.30928998767526D-14  0.33205939917160D-15
   1   2   2  12  0.57405012785424D-01  0.29364636262878D-06
   2   2   2  12  0.32939153906332D-14  0.58559788486067D-16
   3   2   2  12  0.20628043628996D-14  0.31183649310468D-15
   1   3   2  12 -0.44261149120585D-01 -0.81650581098630D-06
   2   3   2  12 -0.98826377920298D-15 -0.21991498187471D-17
   3   3   2  12  0.18984929541125D-14  0.45722508965444D-14
   1   4   2  12  0.96745854510744D-16  0.94081259443986D-17
   2   4   2  12 -0.14681307052924D-01 -0.12848877701414D-06
   3   4   2  12 -0.37541557718164D-16  0.14638266947200D-14
   1   5   2  12  0.34876613747037D-15 -0.76504196142105D-16
   2   5   2  12 -0.11308042753809D+00 -0.59560320347047D-06
   3   5   2  12  0.42806386442569D-15 -0.12434972681600D-14
   1   6   2  12  0.30516379163338D-16 -0.34597949236465D-16
   2   6   2  12  0.68773248223113D+00 -0.34842959886050D-06
   3   6   2  12  0.92931467372362D-15 -0.23702868452467D-14
   1   7   2  12  0.70400714115530D-16  0.31517785699150D-16
   2   7   2  12 -0.13566884193110D-14 -0.48003800145408D-15
   3   7   2  12  0.30456017354437D+00  0.19733419647232D-05
   1   8   2  12 -0.39210856287442D-15  0.64631191423083D-17
   2   8   2  12  0.53141118103050D-15 -0.57066175599015D-17
   3   8   2  12 -0.36880150235559D-15 -0.27166869274432D-17
   1   9   2  12  0.57232360434910D-17 -0.11613252478081D-15
   2   9   2  12 -0.11428402680119D-14  0.23027447300529D-15
   3   9   2  12 -0.30520183029061D-17  0.47943333733908D-16
   1  10   2  12  0.13462390863633D-15  0.23222855277035D-18
   2  10   2  12 -0.32429102294115D+00 -0.47189337154456D-06
   3  10   2  12 -0.50604844883161D-15 -0.51236556303084D-15
   1  11   2  12 -0.56724977401057D-16  0.12886677153234D-17
   2  11   2  12  0.87653760501788D-15 -0.21335536004906D-16
   3  11   2  12 -0.58768276634306D-02 -0.49313733261453D-06
   1  12   2  12  0.23766927338422D-15  0.00000000000000D+00
   2  12   2  12  0.14518406704356D+01  0.00000000000000D+00
   3  12   2  12  0.31628095128205D-14  0.00000000000000D+00
   1   1   3  12  0.25983958812628D-14 -0.45467915427753D-16
   2   1   3  12  0.30928998424246D-14  0.33205941902393D-15
   3   1   3  12  0.28131845629732D-14  0.33961004323903D-16
   1   2   3  12  0.20753532233103D-14  0.61016950549762D-15
   2   2   3  12  0.20628043595909D-14  0.31183653280935D-15
   3   2   3  12 -0.94777831387678D-14  0.48874190799355D-16
   1   3   3  12 -0.29375604784358D-14  0.45187621396904D-14
   2   3   3  12  0.18984929541125D-14  0.45722506847862D-14
   3   3   3  12  0.38695707657718D-15 -0.21494357787056D-16
   1   4   3  12  0.13808957577840D-17 -0.64222931990283D-16
   2   4   3  12 -0.37541574261777D-16  0.14638266947200D-14
   3   4   3  12  0.27155724436062D+00  0.43849899254740D-06
   1   5   3  12  0.50254975382306D-15 -0.11149445710354D-14
   2   5   3  12  0.42806386442569D-15 -0.12434972681600D-14
   3   5   3  12  0.81945613385801D+01  0.66203615796449D-05
   1   6   3  12 -0.39911110900391D-15 -0.20519919895769D-14
   2   6   3  12  0.92931467372362D-15 -0.23702868650990D-14
   3   6   3  12  0.79729165056636D+02  0.87596402354397D-05
   1   7   3  12  0.24259239706808D-15 -0.50780152221952D-16
   2   7   3  12  0.14222816372325D+01 -0.73633515380864D-06
   3   7   3  12  0.13985430242524D-15 -0.71169756953397D-14
   1   8   3  12  0.54636896020115D-01  0.71919585715310D-06
   2   8   3  12 -0.36880150235559D-15 -0.27166869274431D-17
   3   8   3  12  0.51962217386670D-14 -0.48261484489470D-16
   1   9   3  12  0.14222816372325D+01 -0.73633515349409D-06
   2   9   3  12 -0.30520183029061D-17  0.47943333733908D-16
   3   9   3  12  0.23470520136256D-14 -0.64784759786964D-14
   1  10   3  12  0.85466710463938D-16 -0.10435903232757D-15
   2  10   3  12 -0.50604844883162D-15 -0.51236556303084D-15
   3  10   3  12  0.46786750607675D+01  0.68018103968351D-14
   1  11   3  12  0.24904384095494D-16 -0.34338764655062D-16
   2  11   3  12  0.54636896020115D-01  0.71919585714162D-06
   3  11   3  12  0.62096082967152D-14 -0.28644118802308D-15
   1  12   3  12 -0.19851513714667D-14  0.00000000000000D+00
   2  12   3  12  0.31628096319345D-14  0.00000000000000D+00
   3  12   3  12  0.87960675805485D+02  0.00000000000000D+00

 List of bloks and their characteristics 
  
 Total energy                 - # elements :       1
  
 1st derivatives              - # elements :      42
  
 2nd derivatives (non-stat.)  - # elements :    1446
 qpt  0.00000000E+00  0.00000000E+00  0.00000000E+00   1.0
  
 2nd derivatives (non-stat.)  - # elements :    1296
 qpt  1.66666667E-01  0.00000000E+00  0.00000000E+00   1.0
  
 2nd derivatives (non-stat.)  - # elements :    1296
 qpt  3.33333333E-01  0.00000000E+00  0.00000000E+00   1.0
  
 2nd derivatives (non-stat.)  - # elements :    1296
 qpt  5.00000000E-01  0.00000000E+00  0.00000000E+00   1.0
  
 2nd derivatives (non-stat.)  - # elements :    1296
 qpt  1.66666667E-01  1.66666667E-01  0.00000000E+00   1.0
  
 2nd derivatives (non-stat.)  - # elements :    1296
 qpt  3.33333333E-01  1.66666667E-01  0.00000000E+00   1.0
  
 2nd derivatives (non-stat.)  - # elements :    1296
 qpt  5.00000000E-01  1.66666667E-01  0.00000000E+00   1.0
  
 2nd derivatives (non-stat.)  - # elements :    1296
 qpt  3.33333333E-01  3.33333333E-01  0.00000000E+00   1.0
  
 2nd derivatives (non-stat.)  - # elements :    1296
 qpt  5.00000000E-01  3.33333333E-01  0.00000000E+00   1.0
  
 2nd derivatives (non-stat.)  - # elements :    1296
 qpt  5.00000000E-01  5.00000000E-01  0.00000000E+00   1.0
  
 2nd derivatives (non-stat.)  - # elements :    1296
 qpt  0.00000000E+00  0.00000000E+00  2.50000000E-01   1.0
  
 2nd derivatives (non-stat.)  - # elements :    1296
 qpt  1.66666667E-01  0.00000000E+00  2.50000000E-01   1.0
  
 2nd derivatives (non-stat.)  - # elements :    1296
 qpt  3.33333333E-01  0.00000000E+00  2.50000000E-01   1.0
  
 2nd derivatives (non-stat.)  - # elements :    1296
 qpt  5.00000000E-01  0.00000000E+00  2.50000000E-01   1.0
  
 2nd derivatives (non-stat.)  - # elements :    1296
 qpt  1.66666667E-01  1.66666667E-01  2.50000000E-01   1.0
  
 2nd derivatives (non-stat.)  - # elements :    1296
 qpt  3.33333333E-01  1.66666667E-01  2.50000000E-01   1.0
  
 2nd derivatives (non-stat.)  - # elements :    1296
 qpt  5.00000000E-01  1.66666667E-01  2.50000000E-01   1.0
  
 2nd derivatives (non-stat.)  - # elements :    1296
 qpt  3.33333333E-01  3.33333333E-01  2.50000000E-01   1.0
  
 2nd derivatives (non-stat.)  - # elements :    1296
 qpt  5.00000000E-01  3.33333333E-01  2.50000000E-01   1.0
  
 2nd derivatives (non-stat.)  - # elements :    1296
 qpt  5.00000000E-01  5.00000000E-01  2.50000000E-01   1.0
  
 2nd derivatives (non-stat.)  - # elements :    1296
 qpt  0.00000000E+00  0.00000000E+00  5.00000000E-01   1.0
  
 2nd derivatives (non-stat.)  - # elements :    1296
 qpt  1.66666667E-01  0.00000000E+00  5.00000000E-01   1.0
  
 2nd derivatives (non-stat.)  - # elements :    1296
 qpt  3.33333333E-01  0.00000000E+00  5.00000000E-01   1.0
  
 2nd derivatives (non-stat.)  - # elements :    1296
 qpt  5.00000000E-01  0.00000000E+00  5.00000000E-01   1.0
  
 2nd derivatives (non-stat.)  - # elements :    1296
 qpt  1.66666667E-01  1.66666667E-01  5.00000000E-01   1.0
  
 2nd derivatives (non-stat.)  - # elements :    1296
 qpt  3.33333333E-01  1.66666667E-01  5.00000000E-01   1.0
  
 2nd derivatives (non-stat.)  - # elements :    1296
 qpt  5.00000000E-01  1.66666667E-01  5.00000000E-01   1.0
  
 2nd derivatives (non-stat.)  - # elements :    1296
 qpt  3.33333333E-01  3.33333333E-01  5.00000000E-01   1.0
  
 2nd derivatives (non-stat.)  - # elements :    1296
 qpt  5.00000000E-01  3.33333333E-01  5.00000000E-01   1.0
  
 2nd derivatives (non-stat.)  - # elements :    1296
 qpt  5.00000000E-01  5.00000000E-01  5.00000000E-01   1.0
